<LesHouchesEvents version="3.0">
<header>
<!--
#*********************************************************************
#                                                                    *
#                        MadGraph5_aMC@NLO                           *
#                                                                    *
#                           Going Beyond                             *
#                                                                    *
#                   http://madgraph.hep.uiuc.edu                     *
#                   http://madgraph.phys.ucl.ac.be                   *
#                   http://amcatnlo.cern.ch                          *
#                                                                    *
#                     The MadGraph5_aMC@NLO team                     *
#                                                                    *
#....................................................................*
#                                                                    *
# This file contains all the information necessary to reproduce      *
# the events generated:                                              *
#                                                                    *
# 1. software version                                                *
# 2. proc_card          : code generation info including model       *
# 3. param_card         : model primary parameters in the LH format  *
# 4. run_card           : running parameters (collider and cuts)     *
# 5. pythia_card        : present only if pythia has been run        *
# 6. pgs_card           : present only if pgs has been run           *
# 7. delphes_cards      : present only if delphes has been run       *
#                                                                    *
#                                                                    *
#*********************************************************************
-->
<MGVersion>
#3.5.5
</MGVersion>
<MG5ProcCard>
<![CDATA[
#************************************************************
#*                     MadGraph5_aMC@NLO                    *
#*                                                          *
#*                *                       *                 *
#*                  *        * *        *                   *
#*                    * * * * 5 * * * *                     *
#*                  *        * *        *                   *
#*                *                       *                 *
#*                                                          *
#*                                                          *
#*         VERSION 3.5.5                 2024-06-17         *
[1;31m#*                                                          *[1;0m
[1;31m#*          WARNING: UNKNOWN DEVELOPMENT VERSION.           *[1;0m
[1;31m#*            WARNING: DO NOT USE FOR PRODUCTION            *[1;0m
[1;31m#*                                                          *[1;0m
#*                                                          *
#*    The MadGraph5_aMC@NLO Development Team - Find us at   *
#*    https://server06.fynu.ucl.ac.be/projects/madgraph     *
#*                                                          *
#************************************************************
#*                                                          *
#*               Command File for MadGraph5_aMC@NLO         *
#*                                                          *
#*     run as ./bin/mg5_aMC  filename                       *
#*                                                          *
#************************************************************
set group_subprocesses Auto
set ignore_six_quark_processes False
set low_mem_multicore_nlo_generation False
set complex_mass_scheme False
set include_lepton_initiated_processes False
set gauge unitary
set loop_optimized_output True
set loop_color_flows False
set max_npoint_for_channel 0
set default_unset_couplings 99
set max_t_for_channel 99
set zerowidth_tchannel True
set nlo_mixed_expansion True
import model loop_sm
define p = g u c d s u~ c~ d~ s~
define j = g u c d s u~ c~ d~ s~
define l+ = e+ mu+
define l- = e- mu-
define vl = ve vm vt
define vl~ = ve~ vm~ vt~
generate p p > h h QED<=2 [noborn=QCD]
output DiHiggs
]]>
</MG5ProcCard>
<MGProcCard>
<![CDATA[
#*********************************************************************
#                        MadGraph/MadEvent                           *
#                   http://madgraph.hep.uiuc.edu                     *
#                                                                    *
#                          proc_card.dat                             *
#*********************************************************************
#                                                                    *
#            This Files is generated by MADGRAPH 5                   *
#                                                                    *
# WARNING: This Files is generated for MADEVENT (compatibility issue)*
#          This files is NOT a valid MG4 proc_card.dat               *
#          Running this in MG4 will NEVER reproduce the result of MG5*
#                                                                    *
#*********************************************************************
#*********************************************************************
# Process(es) requested : mg2 input                                  *
#*********************************************************************
# Begin PROCESS # This is TAG. Do not modify this line
p p > h h           #Process
# Be carefull the coupling are here in MG5 convention
QED<=2
[noborn=QCD]
          
end_coup           # End the couplings input

done               # this tells MG there are no more procs
# End PROCESS  # This is TAG. Do not modify this line
#*********************************************************************
# Model information                                                  *
#*********************************************************************
# Begin MODEL  # This is TAG. Do not modify this line
loop_sm
# End   MODEL  # This is TAG. Do not modify this line
#*********************************************************************
# Start multiparticle definitions                                    *
#*********************************************************************
# Begin MULTIPARTICLES # This is TAG. Do not modify this line

# End  MULTIPARTICLES # This is TAG. Do not modify this line
]]>
</MGProcCard>
<MGRunCard>
<![CDATA[
#*********************************************************************
#                       MadGraph5_aMC@NLO                            *
#                                                                    *
#                     run_card.dat MadEvent                          *
#                                                                    *
#  This file is used to set the parameters of the run.               *
#                                                                    *
#  Some notation/conventions:                                        *
#                                                                    *
#   Lines starting with a '# ' are info or comments                  *
#                                                                    *
#   mind the format:   value    = variable     ! comment             *
#                                                                    *
#   To display more options, you can type the command:               *
#      update to_full                                                *
#*********************************************************************
#                                                                    
#*********************************************************************
# Tag name for the run (one word)                                    *
#*********************************************************************
  tag_1     = run_tag ! name of the run 
#*********************************************************************
# Number of events and rnd seed                                      *
# Warning: Do not generate more than 1M events in a single run       *
#*********************************************************************
 100 = nevents ! Number of unweighted events requested 
 21 = iseed   ! rnd seed (0=assigned automatically=default))
#*********************************************************************
# Collider type and energy                                           *
# lpp: 0=No PDF, 1=proton, -1=antiproton,                            *
#                2=elastic photon of proton/ion beam                 *
#             +/-3=PDF of electron/positron beam                     *
#             +/-4=PDF of muon/antimuon beam                         *
#*********************************************************************
     1        = lpp1    ! beam 1 type 
     1        = lpp2    ! beam 2 type
     7000.0     = ebeam1  ! beam 1 total energy in GeV
     7000.0     = ebeam2  ! beam 2 total energy in GeV
# To see polarised beam options: type "update beam_pol"

#*********************************************************************
# PDF CHOICE: this automatically fixes alpha_s and its evol.         *
# pdlabel: lhapdf=LHAPDF (installation needed) [1412.7420]           *
#          iww=Improved Weizsaecker-Williams Approx.[hep-ph/9310350] *
#          eva=Effective W/Z/A Approx.       [2111.02442]            *
#          edff=EDFF in gamma-UPC            [eq.(11) in 2207.03012] *
#          chff=ChFF in gamma-UPC            [eq.(13) in 2207.03012] *
#          none=No PDF, same as lhapdf with lppx=0                   *
#*********************************************************************
     nn23lo1    = pdlabel     ! PDF set 
     230000    = lhaid     ! if pdlabel=lhapdf, this is the lhapdf number
# To see heavy ion options: type "update ion_pdf"
#*********************************************************************
# Renormalization and factorization scales                           *
#*********************************************************************
 False = fixed_ren_scale  ! if .true. use fixed ren scale
     False = fixed_fac_scale  ! if .true. use fixed fac scale
 91.188  = scale            ! fixed ren scale
 91.188  = dsqrt_q2fact1    ! fixed fact scale for pdf1
 91.188  = dsqrt_q2fact2    ! fixed fact scale for pdf2
 -1 = dynamical_scale_choice ! Choose one of the preselected dynamical choices
 1.0  = scalefact        ! scale factor for event-by-event scales

 
#*********************************************************************
# Type and output format
#*********************************************************************
  False     = gridpack  !True = setting up the grid pack
  -1.0 = time_of_flight ! threshold (in mm) below which the invariant livetime is not written (-1 means not written)
  average =  event_norm       ! average/sum. Normalization of the weight in the LHEF
# To see MLM/CKKW  merging options: type "update MLM" or "update CKKW"

#*********************************************************************
#
#*********************************************************************
# Phase-Space Optimization strategy (basic options)
#*********************************************************************
   1  = nhel          ! using helicities importance sampling or not.
                             ! 0: sum over helicity, 1: importance sampling
   2  = sde_strategy  ! default integration strategy (hep-ph/2021.00773)
                             ! 1 is old strategy (using amp square)
			     ! 2 is new strategy (using only the denominator)
# To see advanced option for Phase-Space optimization: type "update psoptim"			     
#*********************************************************************
# Customization (custom cuts/scale/bias/...)                         *
# list of files containing fortran function that overwrite default   *
#*********************************************************************
  = custom_fcts ! List of files containing user hook function
#*******************************                                                 
# Parton level cuts definition *
#*******************************
  0.0  = dsqrt_shat ! minimal shat for full process
#                                                                    
#
#*********************************************************************
# BW cutoff (M+/-bwcutoff*Gamma) ! Define on/off-shell for "$" and decay  
#*********************************************************************
  15.0  = bwcutoff      ! (M+/-bwcutoff*Gamma)
#*********************************************************************
# Standard Cuts                                                      *
#*********************************************************************
# Minimum and maximum pt's (for max, -1 means no cut)                *
#*********************************************************************
 {} = pt_min_pdg ! pt cut for other particles (use pdg code). Applied on particle and anti-particle
 {}	= pt_max_pdg ! pt cut for other particles (syntax e.g. {6: 100, 25: 50}) 
#
# For display option for energy cut in the partonic center of mass frame type 'update ecut'
#
#*********************************************************************
# Maximum and minimum absolute rapidity (for max, -1 means no cut)   *
#*********************************************************************
 {} = eta_min_pdg ! rap cut for other particles (use pdg code). Applied on particle and anti-particle
 {} = eta_max_pdg ! rap cut for other particles (syntax e.g. {6: 2.5, 23: 5})
#*********************************************************************
# Minimum and maximum DeltaR distance                                *
#*********************************************************************
#*********************************************************************
# Minimum and maximum invariant mass for pairs                       *
#*********************************************************************
 {} = mxx_min_pdg ! min invariant mass of a pair of particles X/X~ (e.g. {6:250})
 {'default': False} = mxx_only_part_antipart ! if True the invariant mass is applied only 
                       ! to pairs of particle/antiparticle and not to pairs of the same pdg codes.  
#*********************************************************************
# Inclusive cuts                                                     *
#*********************************************************************
 0.0  = ptheavy   ! minimum pt for at least one heavy final state
#*********************************************************************
# maximal pdg code for quark to be considered as a light jet         *
# (otherwise b cuts are applied)                                     *
#*********************************************************************
 4 = maxjetflavor    ! Maximum jet pdg code
#*********************************************************************
#
#*********************************************************************
# Store info for systematics studies                                 *
# WARNING: Do not use for interference type of computation           *
#*********************************************************************
   True  = use_syst      ! Enable systematics studies
#
systematics = systematics_program ! none, systematics [python], SysCalc [depreceted, C++]
['--mur=0.5,1,2', '--muf=0.5,1,2', '--pdf=errorset'] = systematics_arguments ! see: https://cp3.irmp.ucl.ac.be/projects/madgraph/wiki/Systematics#Systematicspythonmodule
]]>
</MGRunCard>
<slha>
######################################################################
## PARAM_CARD AUTOMATICALY GENERATED BY MG5                       ####
######################################################################
###################################
## INFORMATION FOR MASS
###################################
BLOCK MASS # 
      5 4.700000e+00 # mb
      6 1.730000e+02 # mt
      15 1.777000e+00 # mta
      23 9.118800e+01 # mz
      25 1.250000e+02 # mh
      1 0.000000e+00 # d : 0.0
      2 0.000000e+00 # u : 0.0
      3 0.000000e+00 # s : 0.0
      4 0.000000e+00 # c : 0.0
      11 0.000000e+00 # e- : 0.0
      12 0.000000e+00 # ve : 0.0
      13 0.000000e+00 # mu- : 0.0
      14 0.000000e+00 # vm : 0.0
      16 0.000000e+00 # vt : 0.0
      21 0.000000e+00 # g : 0.0
      22 0.000000e+00 # a : 0.0
      24 8.041900e+01 # w+ : cmath.sqrt(mz__exp__2/2. + cmath.sqrt(mz__exp__4/4. - (aew*cmath.pi*mz__exp__2)/(gf*sqrt__2)))
###################################
## INFORMATION FOR SMINPUTS
###################################
BLOCK SMINPUTS # 
      1 1.325070e+02 # aewm1
      2 1.166390e-05 # gf
      3 1.300000e-01 # as (note that parameter not used if you use a pdf set)
###################################
## INFORMATION FOR YUKAWA
###################################
BLOCK YUKAWA # 
      5 4.700000e+00 # ymb
      6 1.730000e+02 # ymt
      15 1.777000e+00 # ymtau
###################################
## INFORMATION FOR DECAY
###################################
DECAY 6 1.491500e+00 # wt
DECAY 23 2.441404e+00 # wz
DECAY 24 2.047600e+00 # ww
DECAY 25 6.382339e-03 # wh
DECAY 1 0.000000e+00 # d : 0.0
DECAY 2 0.000000e+00 # u : 0.0
DECAY 3 0.000000e+00 # s : 0.0
DECAY 4 0.000000e+00 # c : 0.0
DECAY 5 0.000000e+00 # b : 0.0
DECAY 11 0.000000e+00 # e- : 0.0
DECAY 12 0.000000e+00 # ve : 0.0
DECAY 13 0.000000e+00 # mu- : 0.0
DECAY 14 0.000000e+00 # vm : 0.0
DECAY 15 0.000000e+00 # ta- : 0.0
DECAY 16 0.000000e+00 # vt : 0.0
DECAY 21 0.000000e+00 # g : 0.0
DECAY 22 0.000000e+00 # a : 0.0
###################################
## INFORMATION FOR QNUMBERS 82
###################################
BLOCK QNUMBERS 82 #  gh
      1 0 # 3 times electric charge
      2 1 # number of spin states (2s+1)
      3 8 # colour rep (1: singlet, 3: triplet, 8: octet)
      4 1 # particle/antiparticle distinction (0=own anti)
</slha>
<MGGenerationInfo>
#  Number of Events        :       100
#  Integrated weight (pb)  :       0.017228
</MGGenerationInfo>
</header>
<init>
2212 2212 7.000000e+03 7.000000e+03 0 0 247000 247000 -4 1
1.722800e-02 3.053700e-05 1.722800e-02 0
<generator name='MadGraph5_aMC@NLO' version='3.5.5'>please cite 1405.0301 </generator>
</init>
<event>
 4      0 +1.7228000e-02 3.57356800e+02 7.54677100e-03 1.05963500e-01
       21 -1    0    0  502  501 +0.0000000000e+00 +0.0000000000e+00 +3.0865939839e+02 3.0865939839e+02 0.0000000000e+00 0.0000e+00 1.0000e+00
       21 -1    0    0  501  502 -0.0000000000e+00 -0.0000000000e+00 -1.0343428703e+02 1.0343428703e+02 0.0000000000e+00 0.0000e+00 1.0000e+00
       25  1    1    2    0    0 +7.9502201952e+01 +9.9873595438e+01 +9.9876444167e+01 2.0468424287e+02 1.2500000000e+02 0.0000e+00 0.0000e+00
       25  1    1    2    0    0 -7.9502201952e+01 -9.9873595438e+01 +1.0534866719e+02 2.0740944255e+02 1.2500000000e+02 0.0000e+00 0.0000e+00
<mgrwt>
<rscale>  2 0.35735677E+03</rscale>
<asrwt>0</asrwt>
<pdfrwt beam="1">  1       21 0.44094199E-01 0.35735677E+03</pdfrwt>
<pdfrwt beam="2">  1       21 0.14776327E-01 0.35735677E+03</pdfrwt>
<totfact> 0.19109552E+05</totfact>
</mgrwt>
</event>
<event>
 4      0 +1.7228000e-02 4.97278200e+02 7.54677100e-03 1.01449200e-01
       21 -1    0    0  502  501 +0.0000000000e+00 +0.0000000000e+00 +8.0672943004e+01 8.0672943004e+01 0.0000000000e+00 0.0000e+00 1.0000e+00
       21 -1    0    0  501  502 -0.0000000000e+00 -0.0000000000e+00 -7.6632126229e+02 7.6632126229e+02 0.0000000000e+00 0.0000e+00 1.0000e+00
       25  1    1    2    0    0 -6.8121639299e+01 +2.0289879755e+02 -3.7637068239e+02 4.5065327066e+02 1.2500000000e+02 0.0000e+00 0.0000e+00
       25  1    1    2    0    0 +6.8121639299e+01 -2.0289879755e+02 -3.0927763689e+02 3.9634093464e+02 1.2500000000e+02 0.0000e+00 0.0000e+00
<mgrwt>
<rscale>  2 0.49727816E+03</rscale>
<asrwt>0</asrwt>
<pdfrwt beam="1">  1       21 0.11524706E-01 0.49727816E+03</pdfrwt>
<pdfrwt beam="2">  1       21 0.10947447E+00 0.49727816E+03</pdfrwt>
<totfact> 0.37552827E+04</totfact>
</mgrwt>
</event>
<event>
 4      0 +1.7228000e-02 4.43456200e+02 7.54677100e-03 1.02969200e-01
       21 -1    0    0  502  501 +0.0000000000e+00 +0.0000000000e+00 +2.3418589435e+02 2.3418589435e+02 0.0000000000e+00 0.0000e+00 -1.0000e+00
       21 -1    0    0  501  502 -0.0000000000e+00 -0.0000000000e+00 -2.0993299180e+02 2.0993299180e+02 0.0000000000e+00 0.0000e+00 -1.0000e+00
       25  1    1    2    0    0 -7.8232245320e+01 -1.5819654887e+02 -3.6853825649e+01 2.1938467755e+02 1.2500000000e+02 0.0000e+00 0.0000e+00
       25  1    1    2    0    0 +7.8232245320e+01 +1.5819654887e+02 +6.1106728196e+01 2.2473420859e+02 1.2500000000e+02 0.0000e+00 0.0000e+00
<mgrwt>
<rscale>  2 0.44345618E+03</rscale>
<asrwt>0</asrwt>
<pdfrwt beam="1">  1       21 0.33455127E-01 0.44345618E+03</pdfrwt>
<pdfrwt beam="2">  1       21 0.29990428E-01 0.44345618E+03</pdfrwt>
<totfact> 0.85495397E+04</totfact>
</mgrwt>
</event>
<event>
 4      0 +1.7228000e-02 3.94430900e+02 7.54677100e-03 1.04572500e-01
       21 -1    0    0  502  501 +0.0000000000e+00 +0.0000000000e+00 +4.3465712806e+02 4.3465712806e+02 0.0000000000e+00 0.0000e+00 -1.0000e+00
       21 -1    0    0  501  502 -0.0000000000e+00 -0.0000000000e+00 -8.9481876563e+01 8.9481876563e+01 0.0000000000e+00 0.0000e+00 -1.0000e+00
       25  1    1    2    0    0 +8.0182233428e+01 +1.1715398138e+02 +9.8425371296e+01 2.1322945300e+02 1.2500000000e+02 0.0000e+00 0.0000e+00
       25  1    1    2    0    0 -8.0182233428e+01 -1.1715398138e+02 +2.4674988020e+02 3.1090955162e+02 1.2500000000e+02 0.0000e+00 0.0000e+00
<mgrwt>
<rscale>  2 0.39443091E+03</rscale>
<asrwt>0</asrwt>
<pdfrwt beam="1">  1       21 0.62093875E-01 0.39443091E+03</pdfrwt>
<pdfrwt beam="2">  1       21 0.12783125E-01 0.39443091E+03</pdfrwt>
<totfact> 0.11916174E+05</totfact>
</mgrwt>
</event>
<event>
 4      0 +1.7228000e-02 4.11412600e+02 7.54677100e-03 1.03989800e-01
       21 -1    0    0  502  501 +0.0000000000e+00 +0.0000000000e+00 +2.6170436834e+01 2.6170436834e+01 0.0000000000e+00 0.0000e+00 1.0000e+00
       21 -1    0    0  501  502 -0.0000000000e+00 -0.0000000000e+00 -1.6169039007e+03 1.6169039007e+03 0.0000000000e+00 0.0000e+00 1.0000e+00
       25  1    1    2    0    0 +4.9584964396e+01 +4.0482674241e+01 -1.9507494082e+02 2.4036794326e+02 1.2500000000e+02 0.0000e+00 0.0000e+00
       25  1    1    2    0    0 -4.9584964396e+01 -4.0482674241e+01 -1.3956585230e+03 1.4027063943e+03 1.2500000000e+02 0.0000e+00 0.0000e+00
<mgrwt>
<rscale>  2 0.41141260E+03</rscale>
<asrwt>0</asrwt>
<pdfrwt beam="1">  1       21 0.37386325E-02 0.41141260E+03</pdfrwt>
<pdfrwt beam="2">  1       21 0.23098636E+00 0.41141260E+03</pdfrwt>
<totfact> 0.33771809E+04</totfact>
</mgrwt>
</event>
<event>
 4      0 +1.7228000e-02 7.79408100e+02 7.54677100e-03 9.59031100e-02
       21 -1    0    0  502  501 +0.0000000000e+00 +0.0000000000e+00 +8.9425965202e+02 8.9425965202e+02 0.0000000000e+00 0.0000e+00 -1.0000e+00
       21 -1    0    0  501  502 -0.0000000000e+00 -0.0000000000e+00 -1.6982678131e+02 1.6982678131e+02 0.0000000000e+00 0.0000e+00 -1.0000e+00
       25  1    1    2    0    0 -4.0359185572e+01 +3.0093183244e+02 +6.4877382379e+02 7.2713224800e+02 1.2500000000e+02 0.0000e+00 0.0000e+00
       25  1    1    2    0    0 +4.0359185572e+01 -3.0093183244e+02 +7.5659046917e+01 3.3695418534e+02 1.2500000000e+02 0.0000e+00 0.0000e+00
<mgrwt>
<rscale>  2 0.77940808E+03</rscale>
<asrwt>0</asrwt>
<pdfrwt beam="1">  1       21 0.12775138E+00 0.77940808E+03</pdfrwt>
<pdfrwt beam="2">  1       21 0.24260969E-01 0.77940808E+03</pdfrwt>
<totfact> 0.58714940E+03</totfact>
</mgrwt>
</event>
<event>
 4      0 +1.7228000e-02 3.70774400e+02 7.54677100e-03 1.05439700e-01
       21 -1    0    0  502  501 +0.0000000000e+00 +0.0000000000e+00 +2.4721270400e+01 2.4721270400e+01 0.0000000000e+00 0.0000e+00 -1.0000e+00
       21 -1    0    0  501  502 -0.0000000000e+00 -0.0000000000e+00 -1.3902368544e+03 1.3902368544e+03 0.0000000000e+00 0.0000e+00 -1.0000e+00
       25  1    1    2    0    0 +1.0873554600e+02 -7.6061322917e+01 -8.1130717644e+02 8.3153657667e+02 1.2500000000e+02 0.0000e+00 0.0000e+00
       25  1    1    2    0    0 -1.0873554600e+02 +7.6061322917e+01 -5.5420840759e+02 5.8342154816e+02 1.2500000000e+02 0.0000e+00 0.0000e+00
<mgrwt>
<rscale>  2 0.37077444E+03</rscale>
<asrwt>0</asrwt>
<pdfrwt beam="1">  1       21 0.35316093E-02 0.37077444E+03</pdfrwt>
<pdfrwt beam="2">  1       21 0.19860531E+00 0.37077444E+03</pdfrwt>
<totfact> 0.60926594E+04</totfact>
</mgrwt>
</event>
<event>
 4      0 +1.7228000e-02 6.45680100e+02 7.54677100e-03 9.81491900e-02
       21 -1    0    0  502  501 +0.0000000000e+00 +0.0000000000e+00 +2.7375063890e+02 2.7375063890e+02 0.0000000000e+00 0.0000e+00 1.0000e+00
       21 -1    0    0  501  502 -0.0000000000e+00 -0.0000000000e+00 -3.8073228588e+02 3.8073228588e+02 0.0000000000e+00 0.0000e+00 1.0000e+00
       25  1    1    2    0    0 +1.0669709151e+01 +2.9736197693e+02 -4.5463353353e+01 3.2592929373e+02 1.2500000000e+02 0.0000e+00 0.0000e+00
       25  1    1    2    0    0 -1.0669709151e+01 -2.9736197693e+02 -6.1518293629e+01 3.2855363104e+02 1.2500000000e+02 0.0000e+00 0.0000e+00
<mgrwt>
<rscale>  2 0.64568013E+03</rscale>
<asrwt>0</asrwt>
<pdfrwt beam="1">  1       21 0.39107234E-01 0.64568013E+03</pdfrwt>
<pdfrwt beam="2">  1       21 0.54390326E-01 0.64568013E+03</pdfrwt>
<totfact> 0.17421064E+04</totfact>
</mgrwt>
</event>
<event>
 4      0 +1.7228000e-02 4.46625000e+02 7.54677100e-03 1.02873300e-01
       21 -1    0    0  502  501 +0.0000000000e+00 +0.0000000000e+00 +2.9929497008e+01 2.9929497008e+01 0.0000000000e+00 0.0000e+00 -1.0000e+00
       21 -1    0    0  501  502 -0.0000000000e+00 -0.0000000000e+00 -1.6661984065e+03 1.6661984065e+03 0.0000000000e+00 0.0000e+00 -1.0000e+00
       25  1    1    2    0    0 +1.8125572018e+02 +3.7239702729e+01 -8.1150358893e+02 8.4166709951e+02 1.2500000000e+02 0.0000e+00 0.0000e+00
       25  1    1    2    0    0 -1.8125572018e+02 -3.7239702729e+01 -8.2476532052e+02 8.5446080395e+02 1.2500000000e+02 0.0000e+00 0.0000e+00
<mgrwt>
<rscale>  2 0.44662503E+03</rscale>
<asrwt>0</asrwt>
<pdfrwt beam="1">  1       21 0.42756426E-02 0.44662503E+03</pdfrwt>
<pdfrwt beam="2">  1       21 0.23802833E+00 0.44662503E+03</pdfrwt>
<totfact> 0.23982920E+04</totfact>
</mgrwt>
</event>
<event>
 4      0 +1.7228000e-02 3.40343700e+02 7.54677100e-03 1.06665000e-01
       21 -1    0    0  502  501 +0.0000000000e+00 +0.0000000000e+00 +4.3574575016e+02 4.3574575016e+02 0.0000000000e+00 0.0000e+00 1.0000e+00
       21 -1    0    0  501  502 -0.0000000000e+00 -0.0000000000e+00 -6.6457247432e+01 6.6457247432e+01 0.0000000000e+00 0.0000e+00 1.0000e+00
       25  1    1    2    0    0 -4.5383783278e+01 +9.7215415285e+00 +3.4065991911e+02 3.6582560961e+02 1.2500000000e+02 0.0000e+00 0.0000e+00
       25  1    1    2    0    0 +4.5383783278e+01 -9.7215415285e+00 +2.8628583617e+01 1.3637738799e+02 1.2500000000e+02 0.0000e+00 0.0000e+00
<mgrwt>
<rscale>  2 0.34034373E+03</rscale>
<asrwt>0</asrwt>
<pdfrwt beam="1">  1       21 0.62249391E-01 0.34034373E+03</pdfrwt>
<pdfrwt beam="2">  1       21 0.94938927E-02 0.34034373E+03</pdfrwt>
<totfact> 0.20491675E+05</totfact>
</mgrwt>
</event>
<event>
 4      0 +1.7228000e-02 3.98632800e+02 7.54677100e-03 1.04425400e-01
       21 -1    0    0  502  501 +0.0000000000e+00 +0.0000000000e+00 +1.2924100281e+02 1.2924100281e+02 0.0000000000e+00 0.0000e+00 -1.0000e+00
       21 -1    0    0  501  502 -0.0000000000e+00 -0.0000000000e+00 -3.0738713692e+02 3.0738713692e+02 0.0000000000e+00 0.0000e+00 -1.0000e+00
       25  1    1    2    0    0 +8.5565308144e+01 -1.2739656258e+02 -1.1477717019e+02 2.2880145304e+02 1.2500000000e+02 0.0000e+00 0.0000e+00
       25  1    1    2    0    0 -8.5565308144e+01 +1.2739656258e+02 -6.3368963914e+01 2.0782668669e+02 1.2500000000e+02 0.0000e+00 0.0000e+00
<mgrwt>
<rscale>  2 0.39863277E+03</rscale>
<asrwt>0</asrwt>
<pdfrwt beam="1">  1       21 0.18463001E-01 0.39863277E+03</pdfrwt>
<pdfrwt beam="2">  1       21 0.43912448E-01 0.39863277E+03</pdfrwt>
<totfact> 0.12625310E+05</totfact>
</mgrwt>
</event>
<event>
 4      0 +1.7228000e-02 3.78159700e+02 7.54677100e-03 1.05161600e-01
       21 -1    0    0  502  501 +0.0000000000e+00 +0.0000000000e+00 +1.5482591165e+02 1.5482591165e+02 0.0000000000e+00 0.0000e+00 1.0000e+00
       21 -1    0    0  501  502 -0.0000000000e+00 -0.0000000000e+00 -2.3091222086e+02 2.3091222086e+02 0.0000000000e+00 0.0000e+00 1.0000e+00
       25  1    1    2    0    0 +3.5173229233e+01 +2.9555612500e+01 -1.7495483913e+02 2.1987470527e+02 1.2500000000e+02 0.0000e+00 0.0000e+00
       25  1    1    2    0    0 -3.5173229233e+01 -2.9555612500e+01 +9.8868529923e+01 1.6586342724e+02 1.2500000000e+02 0.0000e+00 0.0000e+00
<mgrwt>
<rscale>  2 0.37815973E+03</rscale>
<asrwt>0</asrwt>
<pdfrwt beam="1">  1       21 0.22117987E-01 0.37815973E+03</pdfrwt>
<pdfrwt beam="2">  1       21 0.32987460E-01 0.37815973E+03</pdfrwt>
<totfact> 0.16122585E+05</totfact>
</mgrwt>
</event>
<event>
 4      0 +1.7228000e-02 4.68350900e+02 7.54677100e-03 1.02238700e-01
       21 -1    0    0  502  501 +0.0000000000e+00 +0.0000000000e+00 +4.3309685798e+02 4.3309685798e+02 0.0000000000e+00 0.0000e+00 -1.0000e+00
       21 -1    0    0  501  502 -0.0000000000e+00 -0.0000000000e+00 -1.2661867288e+02 1.2661867288e+02 0.0000000000e+00 0.0000e+00 -1.0000e+00
       25  1    1    2    0    0 +4.1696554035e+01 +3.1073234809e+01 +3.8158642407e+02 4.0489177267e+02 1.2500000000e+02 0.0000e+00 0.0000e+00
       25  1    1    2    0    0 -4.1696554035e+01 -3.1073234809e+01 -7.5108238970e+01 1.5482375819e+02 1.2500000000e+02 0.0000e+00 0.0000e+00
<mgrwt>
<rscale>  2 0.46835093E+03</rscale>
<asrwt>0</asrwt>
<pdfrwt beam="1">  1       21 0.61870979E-01 0.46835093E+03</pdfrwt>
<pdfrwt beam="2">  1       21 0.18088382E-01 0.46835093E+03</pdfrwt>
<totfact> 0.62128975E+04</totfact>
</mgrwt>
</event>
<event>
 4      0 +1.7228000e-02 4.19526000e+02 7.54677100e-03 1.03722100e-01
       21 -1    0    0  502  501 +0.0000000000e+00 +0.0000000000e+00 +6.6131183996e+02 6.6131183996e+02 0.0000000000e+00 0.0000e+00 -1.0000e+00
       21 -1    0    0  501  502 -0.0000000000e+00 -0.0000000000e+00 -6.6535214188e+01 6.6535214188e+01 0.0000000000e+00 0.0000e+00 -1.0000e+00
       25  1    1    2    0    0 +1.6554305116e+01 -1.6488010986e+02 +3.4989757074e+02 4.0683265068e+02 1.2500000000e+02 0.0000e+00 0.0000e+00
       25  1    1    2    0    0 -1.6554305116e+01 +1.6488010986e+02 +2.4487905502e+02 3.2101440347e+02 1.2500000000e+02 0.0000e+00 0.0000e+00
<mgrwt>
<rscale>  2 0.41952604E+03</rscale>
<asrwt>0</asrwt>
<pdfrwt beam="1">  1       21 0.94473117E-01 0.41952604E+03</pdfrwt>
<pdfrwt beam="2">  1       21 0.95050309E-02 0.41952604E+03</pdfrwt>
<totfact> 0.77523588E+04</totfact>
</mgrwt>
</event>
<event>
 4      0 +1.7228000e-02 3.67501600e+02 7.54677100e-03 1.05565200e-01
       21 -1    0    0  502  501 +0.0000000000e+00 +0.0000000000e+00 +2.7671824990e+01 2.7671824990e+01 0.0000000000e+00 0.0000e+00 -1.0000e+00
       21 -1    0    0  501  502 -0.0000000000e+00 -0.0000000000e+00 -1.2201709308e+03 1.2201709308e+03 0.0000000000e+00 0.0000e+00 -1.0000e+00
       25  1    1    2    0    0 +3.9957820739e+01 +4.5994264410e+01 -1.0040920781e+03 1.0136754911e+03 1.2500000000e+02 0.0000e+00 0.0000e+00
       25  1    1    2    0    0 -3.9957820739e+01 -4.5994264410e+01 -1.8840702769e+02 2.3416726475e+02 1.2500000000e+02 0.0000e+00 0.0000e+00
<mgrwt>
<rscale>  2 0.36750160E+03</rscale>
<asrwt>0</asrwt>
<pdfrwt beam="1">  1       21 0.39531174E-02 0.36750160E+03</pdfrwt>
<pdfrwt beam="2">  1       21 0.17431015E+00 0.36750160E+03</pdfrwt>
<totfact> 0.73984196E+04</totfact>
</mgrwt>
</event>
<event>
 4      0 +1.7228000e-02 3.60670300e+02 7.54677100e-03 1.05831900e-01
       21 -1    0    0  502  501 +0.0000000000e+00 +0.0000000000e+00 +1.7709238469e+02 1.7709238469e+02 0.0000000000e+00 0.0000e+00 1.0000e+00
       21 -1    0    0  501  502 -0.0000000000e+00 -0.0000000000e+00 -1.8363732800e+02 1.8363732800e+02 0.0000000000e+00 0.0000e+00 1.0000e+00
       25  1    1    2    0    0 +9.6335919578e+01 -3.2462495571e+01 +7.7743020462e+01 1.7889494194e+02 1.2500000000e+02 0.0000e+00 0.0000e+00
       25  1    1    2    0    0 -9.6335919578e+01 +3.2462495571e+01 -8.4287963765e+01 1.8183477075e+02 1.2500000000e+02 0.0000e+00 0.0000e+00
<mgrwt>
<rscale>  2 0.36067033E+03</rscale>
<asrwt>0</asrwt>
<pdfrwt beam="1">  1       21 0.25298912E-01 0.36067033E+03</pdfrwt>
<pdfrwt beam="2">  1       21 0.26233904E-01 0.36067033E+03</pdfrwt>
<totfact> 0.19625808E+05</totfact>
</mgrwt>
</event>
<event>
 4      0 +1.7228000e-02 6.05547300e+02 7.54677100e-03 9.89396400e-02
       21 -1    0    0  502  501 +0.0000000000e+00 +0.0000000000e+00 +5.8649679583e+02 5.8649679583e+02 0.0000000000e+00 0.0000e+00 1.0000e+00
       21 -1    0    0  501  502 -0.0000000000e+00 -0.0000000000e+00 -1.5630412831e+02 1.5630412831e+02 0.0000000000e+00 0.0000e+00 1.0000e+00
       25  1    1    2    0    0 -1.1212115209e+02 +1.7086365565e+02 -1.2022535627e+01 2.3986471798e+02 1.2500000000e+02 0.0000e+00 0.0000e+00
       25  1    1    2    0    0 +1.1212115209e+02 -1.7086365565e+02 +4.4221520315e+02 5.0293620616e+02 1.2500000000e+02 0.0000e+00 0.0000e+00
<mgrwt>
<rscale>  2 0.60554726E+03</rscale>
<asrwt>0</asrwt>
<pdfrwt beam="1">  1       21 0.83785255E-01 0.60554726E+03</pdfrwt>
<pdfrwt beam="2">  1       21 0.22329162E-01 0.60554726E+03</pdfrwt>
<totfact> 0.20290461E+04</totfact>
</mgrwt>
</event>
<event>
 4      0 +1.7228000e-02 3.03835900e+02 7.54677100e-03 1.08333900e-01
       21 -1    0    0  502  501 +0.0000000000e+00 +0.0000000000e+00 +9.4448258182e+01 9.4448258182e+01 0.0000000000e+00 0.0000e+00 1.0000e+00
       21 -1    0    0  501  502 -0.0000000000e+00 -0.0000000000e+00 -2.4435674260e+02 2.4435674260e+02 0.0000000000e+00 0.0000e+00 1.0000e+00
       25  1    1    2    0    0 -7.0188261448e+01 -4.9870494412e+01 -8.2060314281e+01 1.7254667032e+02 1.2500000000e+02 0.0000e+00 0.0000e+00
       25  1    1    2    0    0 +7.0188261448e+01 +4.9870494412e+01 -6.7848170140e+01 1.6625833047e+02 1.2500000000e+02 0.0000e+00 0.0000e+00
<mgrwt>
<rscale>  2 0.30383593E+03</rscale>
<asrwt>0</asrwt>
<pdfrwt beam="1">  1       21 0.13492608E-01 0.30383593E+03</pdfrwt>
<pdfrwt beam="2">  1       21 0.34908106E-01 0.30383593E+03</pdfrwt>
<totfact> 0.36731041E+05</totfact>
</mgrwt>
</event>
<event>
 4      0 +1.7228000e-02 4.12526800e+02 7.54677100e-03 1.03952600e-01
       21 -1    0    0  502  501 +0.0000000000e+00 +0.0000000000e+00 +3.2176089925e+02 3.2176089925e+02 0.0000000000e+00 0.0000e+00 1.0000e+00
       21 -1    0    0  501  502 -0.0000000000e+00 -0.0000000000e+00 -1.3222421397e+02 1.3222421397e+02 0.0000000000e+00 0.0000e+00 1.0000e+00
       25  1    1    2    0    0 +5.1363434865e+01 +1.5526121983e+01 -7.5863311015e+01 1.5575463031e+02 1.2500000000e+02 0.0000e+00 0.0000e+00
       25  1    1    2    0    0 -5.1363434865e+01 -1.5526121983e+01 +2.6539999629e+02 2.9823048291e+02 1.2500000000e+02 0.0000e+00 0.0000e+00
<mgrwt>
<rscale>  2 0.41252676E+03</rscale>
<asrwt>0</asrwt>
<pdfrwt beam="1">  1       21 0.45965842E-01 0.41252676E+03</pdfrwt>
<pdfrwt beam="2">  1       21 0.18889174E-01 0.41252676E+03</pdfrwt>
<totfact> 0.10961968E+05</totfact>
</mgrwt>
</event>
<event>
 4      0 +1.7228000e-02 4.41962000e+02 7.54677100e-03 1.03014700e-01
       21 -1    0    0  502  501 +0.0000000000e+00 +0.0000000000e+00 +4.5380787189e+02 4.5380787189e+02 0.0000000000e+00 0.0000e+00 -1.0000e+00
       21 -1    0    0  501  502 -0.0000000000e+00 -0.0000000000e+00 -1.0760631518e+02 1.0760631518e+02 0.0000000000e+00 0.0000e+00 -1.0000e+00
       25  1    1    2    0    0 -1.5782666187e+02 -4.1989216546e+01 +2.7579106786e+02 3.4403206626e+02 1.2500000000e+02 0.0000e+00 0.0000e+00
       25  1    1    2    0    0 +1.5782666187e+02 +4.1989216546e+01 +7.0410488849e+01 2.1738212080e+02 1.2500000000e+02 0.0000e+00 0.0000e+00
<mgrwt>
<rscale>  2 0.44196196E+03</rscale>
<asrwt>0</asrwt>
<pdfrwt beam="1">  1       21 0.64829695E-01 0.44196196E+03</pdfrwt>
<pdfrwt beam="2">  1       21 0.15372331E-01 0.44196196E+03</pdfrwt>
<totfact> 0.76381537E+04</totfact>
</mgrwt>
</event>
<event>
 4      0 +1.7228000e-02 4.20233700e+02 7.54677100e-03 1.03699000e-01
       21 -1    0    0  502  501 +0.0000000000e+00 +0.0000000000e+00 +6.9319241371e+01 6.9319241371e+01 0.0000000000e+00 0.0000e+00 1.0000e+00
       21 -1    0    0  501  502 -0.0000000000e+00 -0.0000000000e+00 -6.3689521277e+02 6.3689521277e+02 0.0000000000e+00 0.0000e+00 1.0000e+00
       25  1    1    2    0    0 +4.1179758345e+01 +1.5857700049e+01 -9.8214630049e+00 1.3292366337e+02 1.2500000000e+02 0.0000e+00 0.0000e+00
       25  1    1    2    0    0 -4.1179758345e+01 -1.5857700049e+01 -5.5775450839e+02 5.7329079077e+02 1.2500000000e+02 0.0000e+00 0.0000e+00
<mgrwt>
<rscale>  2 0.42023371E+03</rscale>
<asrwt>0</asrwt>
<pdfrwt beam="1">  1       21 0.99027487E-02 0.42023371E+03</pdfrwt>
<pdfrwt beam="2">  1       21 0.90985031E-01 0.42023371E+03</pdfrwt>
<totfact> 0.78763862E+04</totfact>
</mgrwt>
</event>
<event>
 4      0 +1.7228000e-02 3.85873700e+02 7.54677100e-03 1.04878400e-01
       21 -1    0    0  502  501 +0.0000000000e+00 +0.0000000000e+00 +8.0499769278e+02 8.0499769278e+02 0.0000000000e+00 0.0000e+00 -1.0000e+00
       21 -1    0    0  501  502 -0.0000000000e+00 -0.0000000000e+00 -4.6241916004e+01 4.6241916004e+01 0.0000000000e+00 0.0000e+00 -1.0000e+00
       25  1    1    2    0    0 +1.1977393140e+02 +2.6094225033e+01 +2.0052902483e+02 2.6620216569e+02 1.2500000000e+02 0.0000e+00 0.0000e+00
       25  1    1    2    0    0 -1.1977393140e+02 -2.6094225033e+01 +5.5822675195e+02 5.8503744309e+02 1.2500000000e+02 0.0000e+00 0.0000e+00
<mgrwt>
<rscale>  2 0.38587374E+03</rscale>
<asrwt>0</asrwt>
<pdfrwt beam="1">  1       21 0.11499966E+00 0.38587374E+03</pdfrwt>
<pdfrwt beam="2">  1       21 0.66059885E-02 0.38587374E+03</pdfrwt>
<totfact> 0.91920345E+04</totfact>
</mgrwt>
</event>
<event>
 4      0 +1.7228000e-02 4.99408000e+02 7.54677100e-03 1.01393400e-01
       21 -1    0    0  502  501 +0.0000000000e+00 +0.0000000000e+00 +5.6538128964e+02 5.6538128964e+02 0.0000000000e+00 0.0000e+00 1.0000e+00
       21 -1    0    0  501  502 -0.0000000000e+00 -0.0000000000e+00 -1.1028324992e+02 1.1028324992e+02 0.0000000000e+00 0.0000e+00 1.0000e+00
       25  1    1    2    0    0 -1.4658931540e+02 -7.3876912965e+01 +4.1783124713e+02 4.6599804370e+02 1.2500000000e+02 0.0000e+00 0.0000e+00
       25  1    1    2    0    0 +1.4658931540e+02 +7.3876912965e+01 +3.7266792591e+01 2.0966649586e+02 1.2500000000e+02 0.0000e+00 0.0000e+00
<mgrwt>
<rscale>  2 0.49940799E+03</rscale>
<asrwt>0</asrwt>
<pdfrwt beam="1">  1       21 0.80768754E-01 0.49940799E+03</pdfrwt>
<pdfrwt beam="2">  1       21 0.15754750E-01 0.49940799E+03</pdfrwt>
<totfact> 0.43792680E+04</totfact>
</mgrwt>
</event>
<event>
 4      0 +1.7228000e-02 4.41955000e+02 7.54677100e-03 1.03014900e-01
       21 -1    0    0  502  501 +0.0000000000e+00 +0.0000000000e+00 +2.3637966683e+02 2.3637966683e+02 0.0000000000e+00 0.0000e+00 1.0000e+00
       21 -1    0    0  501  502 -0.0000000000e+00 -0.0000000000e+00 -2.0657894373e+02 2.0657894373e+02 0.0000000000e+00 0.0000e+00 1.0000e+00
       25  1    1    2    0    0 -4.8474975720e+01 +1.7442858996e+02 -5.9050422442e+00 2.2007958967e+02 1.2500000000e+02 0.0000e+00 0.0000e+00
       25  1    1    2    0    0 +4.8474975720e+01 -1.7442858996e+02 +3.5705765344e+01 2.2287902088e+02 1.2500000000e+02 0.0000e+00 0.0000e+00
<mgrwt>
<rscale>  2 0.44195503E+03</rscale>
<asrwt>0</asrwt>
<pdfrwt beam="1">  1       21 0.33768524E-01 0.44195503E+03</pdfrwt>
<pdfrwt beam="2">  1       21 0.29511278E-01 0.44195503E+03</pdfrwt>
<totfact> 0.86655722E+04</totfact>
</mgrwt>
</event>
<event>
 4      0 +1.7228000e-02 4.76186500e+02 7.54677100e-03 1.02018900e-01
       21 -1    0    0  502  501 +0.0000000000e+00 +0.0000000000e+00 +5.8536635629e+02 5.8536635629e+02 0.0000000000e+00 0.0000e+00 -1.0000e+00
       21 -1    0    0  501  502 -0.0000000000e+00 -0.0000000000e+00 -9.6842579933e+01 9.6842579933e+01 0.0000000000e+00 0.0000e+00 -1.0000e+00
       25  1    1    2    0    0 +6.7878928987e+01 +1.8708522724e+02 +1.8961500235e+02 3.0197231722e+02 1.2500000000e+02 0.0000e+00 0.0000e+00
       25  1    1    2    0    0 -6.7878928987e+01 -1.8708522724e+02 +2.9890877401e+02 3.8023661900e+02 1.2500000000e+02 0.0000e+00 0.0000e+00
<mgrwt>
<rscale>  2 0.47618647E+03</rscale>
<asrwt>0</asrwt>
<pdfrwt beam="1">  1       21 0.83623763E-01 0.47618647E+03</pdfrwt>
<pdfrwt beam="2">  1       21 0.13834655E-01 0.47618647E+03</pdfrwt>
<totfact> 0.51657062E+04</totfact>
</mgrwt>
</event>
<event>
 4      0 +1.7228000e-02 4.47953400e+02 7.54677100e-03 1.02833400e-01
       21 -1    0    0  502  501 +0.0000000000e+00 +0.0000000000e+00 +1.1794003107e+02 1.1794003107e+02 0.0000000000e+00 0.0000e+00 1.0000e+00
       21 -1    0    0  501  502 -0.0000000000e+00 -0.0000000000e+00 -4.2534811834e+02 4.2534811834e+02 0.0000000000e+00 0.0000e+00 1.0000e+00
       25  1    1    2    0    0 -1.3535548764e+02 -7.6418282717e+01 -3.0140619628e+01 2.0172832949e+02 1.2500000000e+02 0.0000e+00 0.0000e+00
       25  1    1    2    0    0 +1.3535548764e+02 +7.6418282717e+01 -2.7726746765e+02 3.4155981992e+02 1.2500000000e+02 0.0000e+00 0.0000e+00
<mgrwt>
<rscale>  2 0.44795344E+03</rscale>
<asrwt>0</asrwt>
<pdfrwt beam="1">  1       21 0.16848576E-01 0.44795344E+03</pdfrwt>
<pdfrwt beam="2">  1       21 0.60764017E-01 0.44795344E+03</pdfrwt>
<totfact> 0.74179766E+04</totfact>
</mgrwt>
</event>
<event>
 4      0 +1.7228000e-02 3.69914300e+02 7.54677100e-03 1.05472600e-01
       21 -1    0    0  502  501 +0.0000000000e+00 +0.0000000000e+00 +1.6400747853e+03 1.6400747853e+03 0.0000000000e+00 0.0000e+00 -1.0000e+00
       21 -1    0    0  501  502 -0.0000000000e+00 -0.0000000000e+00 -2.0858287145e+01 2.0858287145e+01 0.0000000000e+00 0.0000e+00 -1.0000e+00
       25  1    1    2    0    0 -1.0241055346e+02 +5.4260408680e+01 +4.8732295140e+02 5.1627586848e+02 1.2500000000e+02 0.0000e+00 0.0000e+00
       25  1    1    2    0    0 +1.0241055346e+02 -5.4260408680e+01 +1.1318935467e+03 1.1446572039e+03 1.2500000000e+02 0.0000e+00 0.0000e+00
<mgrwt>
<rscale>  2 0.36991432E+03</rscale>
<asrwt>0</asrwt>
<pdfrwt beam="1">  1       21 0.23429632E+00 0.36991432E+03</pdfrwt>
<pdfrwt beam="2">  1       21 0.29797563E-02 0.36991432E+03</pdfrwt>
<totfact> 0.47971029E+04</totfact>
</mgrwt>
</event>
<event>
 4      0 +1.7228000e-02 4.33429200e+02 7.54677100e-03 1.03278200e-01
       21 -1    0    0  502  501 +0.0000000000e+00 +0.0000000000e+00 +8.9072173497e+02 8.9072173497e+02 0.0000000000e+00 0.0000e+00 1.0000e+00
       21 -1    0    0  501  502 -0.0000000000e+00 -0.0000000000e+00 -5.2727159254e+01 5.2727159254e+01 0.0000000000e+00 0.0000e+00 1.0000e+00
       25  1    1    2    0    0 +7.0376360513e+01 -1.2820502121e+02 +2.0186188580e+02 2.7885942789e+02 1.2500000000e+02 0.0000e+00 0.0000e+00
       25  1    1    2    0    0 -7.0376360513e+01 +1.2820502121e+02 +6.3613268992e+02 6.6458946634e+02 1.2500000000e+02 0.0000e+00 0.0000e+00
<mgrwt>
<rscale>  2 0.43342924E+03</rscale>
<asrwt>0</asrwt>
<pdfrwt beam="1">  1       21 0.12724595E+00 0.43342924E+03</pdfrwt>
<pdfrwt beam="2">  1       21 0.75324519E-02 0.43342924E+03</pdfrwt>
<totfact> 0.55813871E+04</totfact>
</mgrwt>
</event>
<event>
 4      0 +1.7228000e-02 5.62242000e+02 7.54677100e-03 9.98699400e-02
       21 -1    0    0  502  501 +0.0000000000e+00 +0.0000000000e+00 +5.1527974262e+01 5.1527974262e+01 0.0000000000e+00 0.0000e+00 1.0000e+00
       21 -1    0    0  501  502 -0.0000000000e+00 -0.0000000000e+00 -1.5337111886e+03 1.5337111886e+03 0.0000000000e+00 0.0000e+00 1.0000e+00
       25  1    1    2    0    0 +1.5292048381e+02 +1.5988972904e+02 -4.0211090739e+02 4.7567592083e+02 1.2500000000e+02 0.0000e+00 0.0000e+00
       25  1    1    2    0    0 -1.5292048381e+02 -1.5988972904e+02 -1.0800723070e+03 1.1095632421e+03 1.2500000000e+02 0.0000e+00 0.0000e+00
<mgrwt>
<rscale>  2 0.56224205E+03</rscale>
<asrwt>0</asrwt>
<pdfrwt beam="1">  1       21 0.73611393E-02 0.56224205E+03</pdfrwt>
<pdfrwt beam="2">  1       21 0.21910159E+00 0.56224205E+03</pdfrwt>
<totfact> 0.11841847E+04</totfact>
</mgrwt>
</event>
<event>
 4      0 +1.7228000e-02 4.28776700e+02 7.54677100e-03 1.03424700e-01
       21 -1    0    0  502  501 +0.0000000000e+00 +0.0000000000e+00 +1.1539540506e+02 1.1539540506e+02 0.0000000000e+00 0.0000e+00 1.0000e+00
       21 -1    0    0  501  502 -0.0000000000e+00 -0.0000000000e+00 -3.9830316069e+02 3.9830316069e+02 0.0000000000e+00 0.0000e+00 1.0000e+00
       25  1    1    2    0    0 -1.6520821146e+02 -5.3690224985e+01 -1.2625408089e+02 2.4847834178e+02 1.2500000000e+02 0.0000e+00 0.0000e+00
       25  1    1    2    0    0 +1.6520821146e+02 +5.3690224985e+01 -1.5665367474e+02 2.6522022397e+02 1.2500000000e+02 0.0000e+00 0.0000e+00
<mgrwt>
<rscale>  2 0.42877665E+03</rscale>
<asrwt>0</asrwt>
<pdfrwt beam="1">  1       21 0.16485058E-01 0.42877665E+03</pdfrwt>
<pdfrwt beam="2">  1       21 0.56900451E-01 0.42877665E+03</pdfrwt>
<totfact> 0.89527408E+04</totfact>
</mgrwt>
</event>
<event>
 4      0 +1.7228000e-02 3.89323300e+02 7.54677100e-03 1.04754100e-01
       21 -1    0    0  502  501 +0.0000000000e+00 +0.0000000000e+00 +1.0110296923e+02 1.0110296923e+02 0.0000000000e+00 0.0000e+00 1.0000e+00
       21 -1    0    0  501  502 -0.0000000000e+00 -0.0000000000e+00 -3.7479765876e+02 3.7479765876e+02 0.0000000000e+00 0.0000e+00 1.0000e+00
       25  1    1    2    0    0 -1.3798441593e+02 -1.0627158483e+01 -6.8617998859e+01 1.9871100952e+02 1.2500000000e+02 0.0000e+00 0.0000e+00
       25  1    1    2    0    0 +1.3798441593e+02 +1.0627158483e+01 -2.0507669067e+02 2.7718961848e+02 1.2500000000e+02 0.0000e+00 0.0000e+00
<mgrwt>
<rscale>  2 0.38932329E+03</rscale>
<asrwt>0</asrwt>
<pdfrwt beam="1">  1       21 0.14443281E-01 0.38932329E+03</pdfrwt>
<pdfrwt beam="2">  1       21 0.53542523E-01 0.38932329E+03</pdfrwt>
<totfact> 0.13148946E+05</totfact>
</mgrwt>
</event>
<event>
 4      0 +1.7228000e-02 3.34028400e+02 7.54677100e-03 1.06936800e-01
       21 -1    0    0  502  501 +0.0000000000e+00 +0.0000000000e+00 +1.1062287598e+02 1.1062287598e+02 0.0000000000e+00 0.0000e+00 -1.0000e+00
       21 -1    0    0  501  502 -0.0000000000e+00 -0.0000000000e+00 -2.5215162672e+02 2.5215162672e+02 0.0000000000e+00 0.0000e+00 -1.0000e+00
       25  1    1    2    0    0 +3.2681842084e+01 +2.5923692549e+01 +4.0674998052e+01 1.3791155174e+02 1.2500000000e+02 0.0000e+00 0.0000e+00
       25  1    1    2    0    0 -3.2681842084e+01 -2.5923692549e+01 -1.8220374880e+02 2.2486295096e+02 1.2500000000e+02 0.0000e+00 0.0000e+00
<mgrwt>
<rscale>  2 0.33402837E+03</rscale>
<asrwt>0</asrwt>
<pdfrwt beam="1">  1       21 0.15803268E-01 0.33402837E+03</pdfrwt>
<pdfrwt beam="2">  1       21 0.36021660E-01 0.33402837E+03</pdfrwt>
<totfact> 0.25647971E+05</totfact>
</mgrwt>
</event>
<event>
 4      0 +1.7228000e-02 2.53816100e+02 7.54677100e-03 1.11091700e-01
       21 -1    0    0  502  501 +0.0000000000e+00 +0.0000000000e+00 +2.7570521182e+03 2.7570521182e+03 0.0000000000e+00 0.0000e+00 -1.0000e+00
       21 -1    0    0  501  502 -0.0000000000e+00 -0.0000000000e+00 -5.8416189918e+00 5.8416189918e+00 0.0000000000e+00 0.0000e+00 -1.0000e+00
       25  1    1    2    0    0 +6.9495219436e+00 -7.6673190485e-01 +1.6017926664e+03 1.6066778239e+03 1.2500000000e+02 0.0000e+00 0.0000e+00
       25  1    1    2    0    0 -6.9495219436e+00 +7.6673190485e-01 +1.1494178329e+03 1.1562159133e+03 1.2500000000e+02 0.0000e+00 0.0000e+00
<mgrwt>
<rscale>  2 0.25381606E+03</rscale>
<asrwt>0</asrwt>
<pdfrwt beam="1">  1       21 0.39386375E+00 0.25381606E+03</pdfrwt>
<pdfrwt beam="2">  1       21 0.83451877E-03 0.25381606E+03</pdfrwt>
<totfact> 0.44781462E+04</totfact>
</mgrwt>
</event>
<event>
 4      0 +1.7228000e-02 3.98267800e+02 7.54677100e-03 1.04438100e-01
       21 -1    0    0  502  501 +0.0000000000e+00 +0.0000000000e+00 +7.1270331187e+02 7.1270331187e+02 0.0000000000e+00 0.0000e+00 1.0000e+00
       21 -1    0    0  501  502 -0.0000000000e+00 -0.0000000000e+00 -5.5639299880e+01 5.5639299880e+01 0.0000000000e+00 0.0000e+00 1.0000e+00
       25  1    1    2    0    0 -9.8032013288e+01 -4.8927855055e+01 +1.1697661170e+02 2.0325535249e+02 1.2500000000e+02 0.0000e+00 0.0000e+00
       25  1    1    2    0    0 +9.8032013288e+01 +4.8927855055e+01 +5.4008740029e+02 5.6508725927e+02 1.2500000000e+02 0.0000e+00 0.0000e+00
<mgrwt>
<rscale>  2 0.39826782E+03</rscale>
<asrwt>0</asrwt>
<pdfrwt beam="1">  1       21 0.10181475E+00 0.39826782E+03</pdfrwt>
<pdfrwt beam="2">  1       21 0.79484718E-02 0.39826782E+03</pdfrwt>
<totfact> 0.89392639E+04</totfact>
</mgrwt>
</event>
<event>
 4      0 +1.7228000e-02 3.77846800e+02 7.54677100e-03 1.05173200e-01
       21 -1    0    0  502  501 +0.0000000000e+00 +0.0000000000e+00 +3.0137308157e+02 3.0137308157e+02 0.0000000000e+00 0.0000e+00 1.0000e+00
       21 -1    0    0  501  502 -0.0000000000e+00 -0.0000000000e+00 -1.1843145713e+02 1.1843145713e+02 0.0000000000e+00 0.0000e+00 1.0000e+00
       25  1    1    2    0    0 -1.3104490275e+01 +4.1100029792e+00 +2.4811794343e+02 2.7816565863e+02 1.2500000000e+02 0.0000e+00 0.0000e+00
       25  1    1    2    0    0 +1.3104490275e+01 -4.1100029792e+00 -6.5176318992e+01 1.4163888007e+02 1.2500000000e+02 0.0000e+00 0.0000e+00
<mgrwt>
<rscale>  2 0.37784681E+03</rscale>
<asrwt>0</asrwt>
<pdfrwt beam="1">  1       21 0.43053297E-01 0.37784681E+03</pdfrwt>
<pdfrwt beam="2">  1       21 0.16918780E-01 0.37784681E+03</pdfrwt>
<totfact> 0.15558316E+05</totfact>
</mgrwt>
</event>
<event>
 4      0 +1.7228000e-02 4.40223000e+02 7.54677100e-03 1.03067800e-01
       21 -1    0    0  502  501 +0.0000000000e+00 +0.0000000000e+00 +1.2256576702e+03 1.2256576702e+03 0.0000000000e+00 0.0000e+00 1.0000e+00
       21 -1    0    0  501  502 -0.0000000000e+00 -0.0000000000e+00 -3.9529038785e+01 3.9529038785e+01 0.0000000000e+00 0.0000e+00 1.0000e+00
       25  1    1    2    0    0 -1.7556381898e+02 -2.5962255721e+00 +4.6470779392e+02 5.1225748277e+02 1.2500000000e+02 0.0000e+00 0.0000e+00
       25  1    1    2    0    0 +1.7556381898e+02 +2.5962255721e+00 +7.2142083750e+02 7.5292922623e+02 1.2500000000e+02 0.0000e+00 0.0000e+00
<mgrwt>
<rscale>  2 0.44022299E+03</rscale>
<asrwt>0</asrwt>
<pdfrwt beam="1">  1       21 0.17509393E+00 0.44022299E+03</pdfrwt>
<pdfrwt beam="2">  1       21 0.56470063E-02 0.44022299E+03</pdfrwt>
<totfact> 0.38750978E+04</totfact>
</mgrwt>
</event>
<event>
 4      0 +1.7228000e-02 4.61068200e+02 7.54677100e-03 1.02447200e-01
       21 -1    0    0  502  501 +0.0000000000e+00 +0.0000000000e+00 +4.2913198814e+01 4.2913198814e+01 0.0000000000e+00 0.0000e+00 -1.0000e+00
       21 -1    0    0  501  502 -0.0000000000e+00 -0.0000000000e+00 -1.2384529686e+03 1.2384529686e+03 0.0000000000e+00 0.0000e+00 -1.0000e+00
       25  1    1    2    0    0 +8.5505520199e+01 -1.6005050481e+02 -4.0941121931e+02 4.6494075383e+02 1.2500000000e+02 0.0000e+00 0.0000e+00
       25  1    1    2    0    0 -8.5505520199e+01 +1.6005050481e+02 -7.8612855045e+02 8.1642541356e+02 1.2500000000e+02 0.0000e+00 0.0000e+00
<mgrwt>
<rscale>  2 0.46106823E+03</rscale>
<asrwt>0</asrwt>
<pdfrwt beam="1">  1       21 0.61304572E-02 0.46106823E+03</pdfrwt>
<pdfrwt beam="2">  1       21 0.17692185E+00 0.46106823E+03</pdfrwt>
<totfact> 0.32402433E+04</totfact>
</mgrwt>
</event>
<event>
 4      0 +1.7228000e-02 4.47777900e+02 7.54677100e-03 1.02838700e-01
       21 -1    0    0  502  501 +0.0000000000e+00 +0.0000000000e+00 +6.2182127153e+01 6.2182127153e+01 0.0000000000e+00 0.0000e+00 1.0000e+00
       21 -1    0    0  501  502 -0.0000000000e+00 -0.0000000000e+00 -8.0612016836e+02 8.0612016836e+02 0.0000000000e+00 0.0000e+00 1.0000e+00
       25  1    1    2    0    0 +1.5846967560e+02 +9.3469086306e+01 -4.2148950632e+02 4.7657896735e+02 1.2500000000e+02 0.0000e+00 0.0000e+00
       25  1    1    2    0    0 -1.5846967560e+02 -9.3469086306e+01 -3.2244853488e+02 3.9172332816e+02 1.2500000000e+02 0.0000e+00 0.0000e+00
<mgrwt>
<rscale>  2 0.44777792E+03</rscale>
<asrwt>0</asrwt>
<pdfrwt beam="1">  1       21 0.88831617E-02 0.44777792E+03</pdfrwt>
<pdfrwt beam="2">  1       21 0.11516002E+00 0.44777792E+03</pdfrwt>
<totfact> 0.53515469E+04</totfact>
</mgrwt>
</event>
<event>
 4      0 +1.7228000e-02 4.37978900e+02 7.54677100e-03 1.03136900e-01
       21 -1    0    0  502  501 +0.0000000000e+00 +0.0000000000e+00 +9.4870421531e+01 9.4870421531e+01 0.0000000000e+00 0.0000e+00 1.0000e+00
       21 -1    0    0  501  502 -0.0000000000e+00 -0.0000000000e+00 -5.0549339083e+02 5.0549339083e+02 0.0000000000e+00 0.0000e+00 1.0000e+00
       25  1    1    2    0    0 -7.0808615911e+01 -3.6479271018e+01 +1.5660663644e+01 1.4904648163e+02 1.2500000000e+02 0.0000e+00 0.0000e+00
       25  1    1    2    0    0 +7.0808615911e+01 +3.6479271018e+01 -4.2628363294e+02 4.5131733073e+02 1.2500000000e+02 0.0000e+00 0.0000e+00
<mgrwt>
<rscale>  2 0.43797886E+03</rscale>
<asrwt>0</asrwt>
<pdfrwt beam="1">  1       21 0.13552917E-01 0.43797886E+03</pdfrwt>
<pdfrwt beam="2">  1       21 0.72213341E-01 0.43797886E+03</pdfrwt>
<totfact> 0.75765338E+04</totfact>
</mgrwt>
</event>
<event>
 4      0 +1.7228000e-02 7.76844600e+02 7.54677100e-03 9.59415200e-02
       21 -1    0    0  502  501 +0.0000000000e+00 +0.0000000000e+00 +6.0193374552e+02 6.0193374552e+02 0.0000000000e+00 0.0000e+00 1.0000e+00
       21 -1    0    0  501  502 -0.0000000000e+00 -0.0000000000e+00 -2.5064535571e+02 2.5064535571e+02 0.0000000000e+00 0.0000e+00 1.0000e+00
       25  1    1    2    0    0 -8.3846260673e+01 +1.9482183874e+02 +5.0536849131e+02 5.6214593860e+02 1.2500000000e+02 0.0000e+00 0.0000e+00
       25  1    1    2    0    0 +8.3846260673e+01 -1.9482183874e+02 -1.5408010149e+02 2.9043316263e+02 1.2500000000e+02 0.0000e+00 0.0000e+00
<mgrwt>
<rscale>  2 0.77684464E+03</rscale>
<asrwt>0</asrwt>
<pdfrwt beam="1">  1       21 0.85990535E-01 0.77684464E+03</pdfrwt>
<pdfrwt beam="2">  1       21 0.35806480E-01 0.77684464E+03</pdfrwt>
<totfact> 0.72215318E+03</totfact>
</mgrwt>
</event>
<event>
 4      0 +1.7228000e-02 3.68245000e+02 7.54677100e-03 1.05536600e-01
       21 -1    0    0  502  501 +0.0000000000e+00 +0.0000000000e+00 +3.5551735162e+02 3.5551735162e+02 0.0000000000e+00 0.0000e+00 1.0000e+00
       21 -1    0    0  501  502 -0.0000000000e+00 -0.0000000000e+00 -9.5357051922e+01 9.5357051922e+01 0.0000000000e+00 0.0000e+00 1.0000e+00
       25  1    1    2    0    0 -1.0948318737e+02 -7.8711223622e+01 +1.4195490779e+02 2.3228908904e+02 1.2500000000e+02 0.0000e+00 0.0000e+00
       25  1    1    2    0    0 +1.0948318737e+02 +7.8711223622e+01 +1.1820539190e+02 2.1858531450e+02 1.2500000000e+02 0.0000e+00 0.0000e+00
<mgrwt>
<rscale>  2 0.36824495E+03</rscale>
<asrwt>0</asrwt>
<pdfrwt beam="1">  1       21 0.50788193E-01 0.36824495E+03</pdfrwt>
<pdfrwt beam="2">  1       21 0.13622436E-01 0.36824495E+03</pdfrwt>
<totfact> 0.16456857E+05</totfact>
</mgrwt>
</event>
<event>
 4      0 +1.7228000e-02 4.04565800e+02 7.54677100e-03 1.04221000e-01
       21 -1    0    0  502  501 +0.0000000000e+00 +0.0000000000e+00 +9.5879276723e+01 9.5879276723e+01 0.0000000000e+00 0.0000e+00 1.0000e+00
       21 -1    0    0  501  502 -0.0000000000e+00 -0.0000000000e+00 -4.2676961920e+02 4.2676961920e+02 0.0000000000e+00 0.0000e+00 1.0000e+00
       25  1    1    2    0    0 +2.0434633661e+01 -5.0992627423e+01 +2.7367264467e+01 1.3925440556e+02 1.2500000000e+02 0.0000e+00 0.0000e+00
       25  1    1    2    0    0 -2.0434633661e+01 +5.0992627423e+01 -3.5825760694e+02 3.8339449036e+02 1.2500000000e+02 0.0000e+00 0.0000e+00
<mgrwt>
<rscale>  2 0.40456575E+03</rscale>
<asrwt>0</asrwt>
<pdfrwt beam="1">  1       21 0.13697039E-01 0.40456575E+03</pdfrwt>
<pdfrwt beam="2">  1       21 0.60967089E-01 0.40456575E+03</pdfrwt>
<totfact> 0.10908139E+05</totfact>
</mgrwt>
</event>
<event>
 4      0 +1.7228000e-02 3.89803900e+02 7.54677100e-03 1.04736900e-01
       21 -1    0    0  502  501 +0.0000000000e+00 +0.0000000000e+00 +8.0588272486e+01 8.0588272486e+01 0.0000000000e+00 0.0000e+00 1.0000e+00
       21 -1    0    0  501  502 -0.0000000000e+00 -0.0000000000e+00 -4.7136842300e+02 4.7136842300e+02 0.0000000000e+00 0.0000e+00 1.0000e+00
       25  1    1    2    0    0 -1.4202613280e+02 -2.4454515131e+00 -2.6156925463e+02 3.2283258447e+02 1.2500000000e+02 0.0000e+00 0.0000e+00
       25  1    1    2    0    0 +1.4202613280e+02 +2.4454515131e+00 -1.2921089589e+02 2.2912411101e+02 1.2500000000e+02 0.0000e+00 0.0000e+00
<mgrwt>
<rscale>  2 0.38980388E+03</rscale>
<asrwt>0</asrwt>
<pdfrwt beam="1">  1       21 0.11512610E-01 0.38980388E+03</pdfrwt>
<pdfrwt beam="2">  1       21 0.67338347E-01 0.38980388E+03</pdfrwt>
<totfact> 0.12058524E+05</totfact>
</mgrwt>
</event>
<event>
 4      0 +1.7228000e-02 3.65599400e+02 7.54677100e-03 1.05638800e-01
       21 -1    0    0  502  501 +0.0000000000e+00 +0.0000000000e+00 +1.6630740613e+02 1.6630740613e+02 0.0000000000e+00 0.0000e+00 -1.0000e+00
       21 -1    0    0  501  502 -0.0000000000e+00 -0.0000000000e+00 -2.0092754436e+02 2.0092754436e+02 0.0000000000e+00 0.0000e+00 -1.0000e+00
       25  1    1    2    0    0 +9.4112055940e+01 -7.1452485968e+01 +4.4839181351e+01 1.7775851318e+02 1.2500000000e+02 0.0000e+00 0.0000e+00
       25  1    1    2    0    0 -9.4112055940e+01 +7.1452485968e+01 -7.9459319579e+01 1.8947643730e+02 1.2500000000e+02 0.0000e+00 0.0000e+00
<mgrwt>
<rscale>  2 0.36559945E+03</rscale>
<asrwt>0</asrwt>
<pdfrwt beam="1">  1       21 0.23758201E-01 0.36559945E+03</pdfrwt>
<pdfrwt beam="2">  1       21 0.28703935E-01 0.36559945E+03</pdfrwt>
<totfact> 0.18564450E+05</totfact>
</mgrwt>
</event>
<event>
 4      0 +1.7228000e-02 4.84363800e+02 7.54677100e-03 1.01794300e-01
       21 -1    0    0  502  501 +0.0000000000e+00 +0.0000000000e+00 +1.6512098077e+02 1.6512098077e+02 0.0000000000e+00 0.0000e+00 -1.0000e+00
       21 -1    0    0  501  502 -0.0000000000e+00 -0.0000000000e+00 -3.5520661635e+02 3.5520661635e+02 0.0000000000e+00 0.0000e+00 -1.0000e+00
       25  1    1    2    0    0 -5.6898855258e+01 -1.9816779838e+02 -1.1951847807e+02 2.6910522598e+02 1.2500000000e+02 0.0000e+00 0.0000e+00
       25  1    1    2    0    0 +5.6898855258e+01 +1.9816779838e+02 -7.0567157498e+01 2.5122237114e+02 1.2500000000e+02 0.0000e+00 0.0000e+00
<mgrwt>
<rscale>  2 0.48436377E+03</rscale>
<asrwt>0</asrwt>
<pdfrwt beam="1">  1       21 0.23588711E-01 0.48436377E+03</pdfrwt>
<pdfrwt beam="2">  1       21 0.50743803E-01 0.48436377E+03</pdfrwt>
<totfact> 0.57314531E+04</totfact>
</mgrwt>
</event>
<event>
 4      0 +1.7228000e-02 5.41462300e+02 7.54677100e-03 1.00349000e-01
       21 -1    0    0  502  501 +0.0000000000e+00 +0.0000000000e+00 +6.6243668050e+02 6.6243668050e+02 0.0000000000e+00 0.0000e+00 1.0000e+00
       21 -1    0    0  501  502 -0.0000000000e+00 -0.0000000000e+00 -1.1064506400e+02 1.1064506400e+02 0.0000000000e+00 0.0000e+00 1.0000e+00
       25  1    1    2    0    0 -1.4052916481e+02 +1.8055468866e+02 +3.8005338341e+02 4.6088395068e+02 1.2500000000e+02 0.0000e+00 0.0000e+00
       25  1    1    2    0    0 +1.4052916481e+02 -1.8055468866e+02 +1.7173823309e+02 3.1219779382e+02 1.2500000000e+02 0.0000e+00 0.0000e+00
<mgrwt>
<rscale>  2 0.54146228E+03</rscale>
<asrwt>0</asrwt>
<pdfrwt beam="1">  1       21 0.94633809E-01 0.54146228E+03</pdfrwt>
<pdfrwt beam="2">  1       21 0.15806438E-01 0.54146228E+03</pdfrwt>
<totfact> 0.29678898E+04</totfact>
</mgrwt>
</event>
<event>
 4      0 +1.7228000e-02 3.97964300e+02 7.54677100e-03 1.04448700e-01
       21 -1    0    0  502  501 +0.0000000000e+00 +0.0000000000e+00 +2.4538319006e+02 2.4538319006e+02 0.0000000000e+00 0.0000e+00 -1.0000e+00
       21 -1    0    0  501  502 -0.0000000000e+00 -0.0000000000e+00 -1.6135533976e+02 1.6135533976e+02 0.0000000000e+00 0.0000e+00 -1.0000e+00
       25  1    1    2    0    0 -1.3696145575e+02 -6.7088986336e+01 +1.4789908314e+01 1.9774507285e+02 1.2500000000e+02 0.0000e+00 0.0000e+00
       25  1    1    2    0    0 +1.3696145575e+02 +6.7088986336e+01 +6.9237941986e+01 2.0899345697e+02 1.2500000000e+02 0.0000e+00 0.0000e+00
<mgrwt>
<rscale>  2 0.39796426E+03</rscale>
<asrwt>0</asrwt>
<pdfrwt beam="1">  1       21 0.35054741E-01 0.39796426E+03</pdfrwt>
<pdfrwt beam="2">  1       21 0.23050763E-01 0.39796426E+03</pdfrwt>
<totfact> 0.13130300E+05</totfact>
</mgrwt>
</event>
<event>
 4      0 +1.7228000e-02 3.33002200e+02 7.54677100e-03 1.06981600e-01
       21 -1    0    0  502  501 +0.0000000000e+00 +0.0000000000e+00 +8.8691900222e+02 8.8691900222e+02 0.0000000000e+00 0.0000e+00 1.0000e+00
       21 -1    0    0  501  502 -0.0000000000e+00 -0.0000000000e+00 -3.1257219582e+01 3.1257219582e+01 0.0000000000e+00 0.0000e+00 1.0000e+00
       25  1    1    2    0    0 +8.5430239290e+00 -5.8043811280e+01 +1.7130786946e+02 2.2003057384e+02 1.2500000000e+02 0.0000e+00 0.0000e+00
       25  1    1    2    0    0 -8.5430239290e+00 +5.8043811280e+01 +6.8435391318e+02 6.9814564797e+02 1.2500000000e+02 0.0000e+00 0.0000e+00
<mgrwt>
<rscale>  2 0.33300223E+03</rscale>
<asrwt>0</asrwt>
<pdfrwt beam="1">  1       21 0.12670270E+00 0.33300223E+03</pdfrwt>
<pdfrwt beam="2">  1       21 0.44653176E-02 0.33300223E+03</pdfrwt>
<totfact> 0.14331643E+05</totfact>
</mgrwt>
</event>
<event>
 4      0 +1.7228000e-02 4.15170700e+02 7.54677100e-03 1.03865000e-01
       21 -1    0    0  502  501 +0.0000000000e+00 +0.0000000000e+00 +4.5474328517e+01 4.5474328517e+01 0.0000000000e+00 0.0000e+00 1.0000e+00
       21 -1    0    0  501  502 -0.0000000000e+00 -0.0000000000e+00 -9.4760456101e+02 9.4760456101e+02 0.0000000000e+00 0.0000e+00 1.0000e+00
       25  1    1    2    0    0 -1.1068258175e+02 +1.2269029483e+02 -4.2051339952e+02 4.6878573093e+02 1.2500000000e+02 0.0000e+00 0.0000e+00
       25  1    1    2    0    0 +1.1068258175e+02 -1.2269029483e+02 -4.8161683297e+02 5.2429315860e+02 1.2500000000e+02 0.0000e+00 0.0000e+00
<mgrwt>
<rscale>  2 0.41517072E+03</rscale>
<asrwt>0</asrwt>
<pdfrwt beam="1">  1       21 0.64963325E-02 0.41517072E+03</pdfrwt>
<pdfrwt beam="2">  1       21 0.13537208E+00 0.41517072E+03</pdfrwt>
<totfact> 0.61914071E+04</totfact>
</mgrwt>
</event>
<event>
 4      0 +1.7228000e-02 4.15768700e+02 7.54677100e-03 1.03845200e-01
       21 -1    0    0  502  501 +0.0000000000e+00 +0.0000000000e+00 +3.0922261068e+02 3.0922261068e+02 0.0000000000e+00 0.0000e+00 1.0000e+00
       21 -1    0    0  501  502 -0.0000000000e+00 -0.0000000000e+00 -1.3975663590e+02 1.3975663590e+02 0.0000000000e+00 0.0000e+00 1.0000e+00
       25  1    1    2    0    0 +4.2539560721e+01 -1.5592440909e+02 +4.3345693308e+01 2.0886810361e+02 1.2500000000e+02 0.0000e+00 0.0000e+00
       25  1    1    2    0    0 -4.2539560721e+01 +1.5592440909e+02 +1.2612028147e+02 2.4011114296e+02 1.2500000000e+02 0.0000e+00 0.0000e+00
<mgrwt>
<rscale>  2 0.41576874E+03</rscale>
<asrwt>0</asrwt>
<pdfrwt beam="1">  1       21 0.44174658E-01 0.41576874E+03</pdfrwt>
<pdfrwt beam="2">  1       21 0.19965234E-01 0.41576874E+03</pdfrwt>
<totfact> 0.10718056E+05</totfact>
</mgrwt>
</event>
<event>
 4      0 +1.7228000e-02 3.29539300e+02 7.54677100e-03 1.07134100e-01
       21 -1    0    0  502  501 +0.0000000000e+00 +0.0000000000e+00 +1.6895741812e+02 1.6895741812e+02 0.0000000000e+00 0.0000e+00 -1.0000e+00
       21 -1    0    0  501  502 -0.0000000000e+00 -0.0000000000e+00 -1.6068568204e+02 1.6068568204e+02 0.0000000000e+00 0.0000e+00 -1.0000e+00
       25  1    1    2    0    0 -2.5921003704e+01 -1.5381851320e+01 +1.0720005466e+02 1.6740774027e+02 1.2500000000e+02 0.0000e+00 0.0000e+00
       25  1    1    2    0    0 +2.5921003704e+01 +1.5381851320e+01 -9.8928318574e+01 1.6223535989e+02 1.2500000000e+02 0.0000e+00 0.0000e+00
<mgrwt>
<rscale>  2 0.32953930E+03</rscale>
<asrwt>0</asrwt>
<pdfrwt beam="1">  1       21 0.24136774E-01 0.32953930E+03</pdfrwt>
<pdfrwt beam="2">  1       21 0.22955097E-01 0.32953930E+03</pdfrwt>
<totfact> 0.27975275E+05</totfact>
</mgrwt>
</event>
<event>
 4      0 +1.7228000e-02 4.47287000e+02 7.54677100e-03 1.02853400e-01
       21 -1    0    0  502  501 +0.0000000000e+00 +0.0000000000e+00 +9.7968490128e+01 9.7968490128e+01 0.0000000000e+00 0.0000e+00 -1.0000e+00
       21 -1    0    0  501  502 -0.0000000000e+00 -0.0000000000e+00 -5.1053582017e+02 5.1053582017e+02 0.0000000000e+00 0.0000e+00 -1.0000e+00
       25  1    1    2    0    0 -2.5796177178e+01 +2.9477740142e+01 -4.5288282234e+02 4.7144695427e+02 1.2500000000e+02 0.0000e+00 0.0000e+00
       25  1    1    2    0    0 +2.5796177178e+01 -2.9477740142e+01 +4.0315492300e+01 1.3705735602e+02 1.2500000000e+02 0.0000e+00 0.0000e+00
<mgrwt>
<rscale>  2 0.44728704E+03</rscale>
<asrwt>0</asrwt>
<pdfrwt beam="1">  1       21 0.13995499E-01 0.44728704E+03</pdfrwt>
<pdfrwt beam="2">  1       21 0.72933688E-01 0.44728704E+03</pdfrwt>
<totfact> 0.69688443E+04</totfact>
</mgrwt>
</event>
<event>
 4      0 +1.7228000e-02 3.78869500e+02 7.54677100e-03 1.05135200e-01
       21 -1    0    0  502  501 +0.0000000000e+00 +0.0000000000e+00 +9.9684014269e+01 9.9684014269e+01 0.0000000000e+00 0.0000e+00 -1.0000e+00
       21 -1    0    0  501  502 -0.0000000000e+00 -0.0000000000e+00 -3.5999277551e+02 3.5999277551e+02 0.0000000000e+00 0.0000e+00 -1.0000e+00
       25  1    1    2    0    0 +2.9955808228e+01 +1.1149602198e+02 -2.9139279356e+01 1.7263490657e+02 1.2500000000e+02 0.0000e+00 0.0000e+00
       25  1    1    2    0    0 -2.9955808228e+01 -1.1149602198e+02 -2.3116948189e+02 2.8704188322e+02 1.2500000000e+02 0.0000e+00 0.0000e+00
<mgrwt>
<rscale>  2 0.37886950E+03</rscale>
<asrwt>0</asrwt>
<pdfrwt beam="1">  1       21 0.14240574E-01 0.37886950E+03</pdfrwt>
<pdfrwt beam="2">  1       21 0.51427539E-01 0.37886950E+03</pdfrwt>
<totfact> 0.14739397E+05</totfact>
</mgrwt>
</event>
<event>
 4      0 +1.7228000e-02 4.16795300e+02 7.54677100e-03 1.03811400e-01
       21 -1    0    0  502  501 +0.0000000000e+00 +0.0000000000e+00 +1.3756035808e+02 1.3756035808e+02 0.0000000000e+00 0.0000e+00 -1.0000e+00
       21 -1    0    0  501  502 -0.0000000000e+00 -0.0000000000e+00 -3.1571295116e+02 3.1571295116e+02 0.0000000000e+00 0.0000e+00 -1.0000e+00
       25  1    1    2    0    0 -2.2848524178e+01 +8.4558931738e+01 +6.5230196365e+01 1.6598869393e+02 1.2500000000e+02 0.0000e+00 0.0000e+00
       25  1    1    2    0    0 +2.2848524178e+01 -8.4558931738e+01 -2.4338278945e+02 2.8728461531e+02 1.2500000000e+02 0.0000e+00 0.0000e+00
<mgrwt>
<rscale>  2 0.41679533E+03</rscale>
<asrwt>0</asrwt>
<pdfrwt beam="1">  1       21 0.19651480E-01 0.41679533E+03</pdfrwt>
<pdfrwt beam="2">  1       21 0.45101850E-01 0.41679533E+03</pdfrwt>
<totfact> 0.10574188E+05</totfact>
</mgrwt>
</event>
<event>
 4      0 +1.7228000e-02 7.07208800e+02 7.54677100e-03 9.70498300e-02
       21 -1    0    0  502  501 +0.0000000000e+00 +0.0000000000e+00 +8.4305612485e+01 8.4305612485e+01 0.0000000000e+00 0.0000e+00 -1.0000e+00
       21 -1    0    0  501  502 -0.0000000000e+00 -0.0000000000e+00 -1.4831287118e+03 1.4831287118e+03 0.0000000000e+00 0.0000e+00 -1.0000e+00
       25  1    1    2    0    0 -1.3987588535e+02 +1.0483621581e+02 -1.3217932331e+03 1.3391483288e+03 1.2500000000e+02 0.0000e+00 0.0000e+00
       25  1    1    2    0    0 +1.3987588535e+02 -1.0483621581e+02 -7.7029866213e+01 2.2828599549e+02 1.2500000000e+02 0.0000e+00 0.0000e+00
<mgrwt>
<rscale>  2 0.70720881E+03</rscale>
<asrwt>0</asrwt>
<pdfrwt beam="1">  1       21 0.12043660E-01 0.70720881E+03</pdfrwt>
<pdfrwt beam="2">  1       21 0.21187552E+00 0.70720881E+03</pdfrwt>
<totfact> 0.52304223E+03</totfact>
</mgrwt>
</event>
<event>
 4      0 +1.7228000e-02 6.50435800e+02 7.54677100e-03 9.80596200e-02
       21 -1    0    0  502  501 +0.0000000000e+00 +0.0000000000e+00 +1.3259899659e+02 1.3259899659e+02 0.0000000000e+00 0.0000e+00 1.0000e+00
       21 -1    0    0  501  502 -0.0000000000e+00 -0.0000000000e+00 -7.9764316302e+02 7.9764316302e+02 0.0000000000e+00 0.0000e+00 1.0000e+00
       25  1    1    2    0    0 +1.7875857111e+02 -1.3313200835e+02 -6.2020906870e+02 6.7079284976e+02 1.2500000000e+02 0.0000e+00 0.0000e+00
       25  1    1    2    0    0 -1.7875857111e+02 +1.3313200835e+02 -4.4835097733e+01 2.5944930985e+02 1.2500000000e+02 0.0000e+00 0.0000e+00
<mgrwt>
<rscale>  2 0.65043580E+03</rscale>
<asrwt>0</asrwt>
<pdfrwt beam="1">  1       21 0.18942714E-01 0.65043580E+03</pdfrwt>
<pdfrwt beam="2">  1       21 0.11394902E+00 0.65043580E+03</pdfrwt>
<totfact> 0.13040943E+04</totfact>
</mgrwt>
</event>
<event>
 4      0 +1.7228000e-02 3.85986900e+02 7.54677100e-03 1.04874300e-01
       21 -1    0    0  502  501 +0.0000000000e+00 +0.0000000000e+00 +7.3794379121e+02 7.3794379121e+02 0.0000000000e+00 0.0000e+00 1.0000e+00
       21 -1    0    0  501  502 -0.0000000000e+00 -0.0000000000e+00 -5.0473311985e+01 5.0473311985e+01 0.0000000000e+00 0.0000e+00 1.0000e+00
       25  1    1    2    0    0 -1.0322595808e+02 -8.5431911731e+01 +2.2003965854e+02 2.8635059157e+02 1.2500000000e+02 0.0000e+00 0.0000e+00
       25  1    1    2    0    0 +1.0322595808e+02 +8.5431911731e+01 +4.6743082068e+02 5.0206651162e+02 1.2500000000e+02 0.0000e+00 0.0000e+00
<mgrwt>
<rscale>  2 0.38598688E+03</rscale>
<asrwt>0</asrwt>
<pdfrwt beam="1">  1       21 0.10542054E+00 0.38598688E+03</pdfrwt>
<pdfrwt beam="2">  1       21 0.72104736E-02 0.38598688E+03</pdfrwt>
<totfact> 0.97754428E+04</totfact>
</mgrwt>
</event>
<event>
 4      0 +1.7228000e-02 3.60915500e+02 7.54677100e-03 1.05822200e-01
       21 -1    0    0  502  501 +0.0000000000e+00 +0.0000000000e+00 +2.9692666156e+02 2.9692666156e+02 0.0000000000e+00 0.0000e+00 1.0000e+00
       21 -1    0    0  501  502 -0.0000000000e+00 -0.0000000000e+00 -1.0967353633e+02 1.0967353633e+02 0.0000000000e+00 0.0000e+00 1.0000e+00
       25  1    1    2    0    0 -4.3945918608e+01 -9.7283531064e+01 +9.7385635927e+00 1.6466684183e+02 1.2500000000e+02 0.0000e+00 0.0000e+00
       25  1    1    2    0    0 +4.3945918608e+01 +9.7283531064e+01 +1.7751456164e+02 2.4193335606e+02 1.2500000000e+02 0.0000e+00 0.0000e+00
<mgrwt>
<rscale>  2 0.36091549E+03</rscale>
<asrwt>0</asrwt>
<pdfrwt beam="1">  1       21 0.42418094E-01 0.36091549E+03</pdfrwt>
<pdfrwt beam="2">  1       21 0.15667648E-01 0.36091549E+03</pdfrwt>
<totfact> 0.18570066E+05</totfact>
</mgrwt>
</event>
<event>
 4      0 +1.7228000e-02 7.59115600e+02 7.54677100e-03 9.62115700e-02
       21 -1    0    0  502  501 +0.0000000000e+00 +0.0000000000e+00 +1.0652398866e+03 1.0652398866e+03 0.0000000000e+00 0.0000e+00 -1.0000e+00
       21 -1    0    0  501  502 -0.0000000000e+00 -0.0000000000e+00 -1.3524102279e+02 1.3524102279e+02 0.0000000000e+00 0.0000e+00 -1.0000e+00
       25  1    1    2    0    0 -2.3215240790e+02 -2.7022862731e+02 +4.0332646488e+02 5.5246311079e+02 1.2500000000e+02 0.0000e+00 0.0000e+00
       25  1    1    2    0    0 +2.3215240790e+02 +2.7022862731e+02 +5.2667239891e+02 6.4801779859e+02 1.2500000000e+02 0.0000e+00 0.0000e+00
<mgrwt>
<rscale>  2 0.75911562E+03</rscale>
<asrwt>0</asrwt>
<pdfrwt beam="1">  1       21 0.15217712E+00 0.75911562E+03</pdfrwt>
<pdfrwt beam="2">  1       21 0.19320147E-01 0.75911562E+03</pdfrwt>
<totfact> 0.57167442E+03</totfact>
</mgrwt>
</event>
<event>
 4      0 +1.7228000e-02 4.44990200e+02 7.54677100e-03 1.02922700e-01
       21 -1    0    0  502  501 +0.0000000000e+00 +0.0000000000e+00 +1.3429861010e+03 1.3429861010e+03 0.0000000000e+00 0.0000e+00 1.0000e+00
       21 -1    0    0  501  502 -0.0000000000e+00 -0.0000000000e+00 -3.6861187307e+01 3.6861187307e+01 0.0000000000e+00 0.0000e+00 1.0000e+00
       25  1    1    2    0    0 +8.3939162761e+01 -1.8007107231e+01 +1.4819488901e+02 2.1203010184e+02 1.2500000000e+02 0.0000e+00 0.0000e+00
       25  1    1    2    0    0 -8.3939162761e+01 +1.8007107231e+01 +1.1579300247e+03 1.1678171865e+03 1.2500000000e+02 0.0000e+00 0.0000e+00
<mgrwt>
<rscale>  2 0.44499017E+03</rscale>
<asrwt>0</asrwt>
<pdfrwt beam="1">  1       21 0.19185513E+00 0.44499017E+03</pdfrwt>
<pdfrwt beam="2">  1       21 0.52658847E-02 0.44499017E+03</pdfrwt>
<totfact> 0.33373842E+04</totfact>
</mgrwt>
</event>
<event>
 4      0 +1.7228000e-02 4.38145700e+02 7.54677100e-03 1.03131700e-01
       21 -1    0    0  502  501 +0.0000000000e+00 +0.0000000000e+00 +5.3030726951e+02 5.3030726951e+02 0.0000000000e+00 0.0000e+00 -1.0000e+00
       21 -1    0    0  501  502 -0.0000000000e+00 -0.0000000000e+00 -9.0500211446e+01 9.0500211446e+01 0.0000000000e+00 0.0000e+00 -1.0000e+00
       25  1    1    2    0    0 -6.1421315923e+01 -4.7876656816e+01 +4.4969948725e+02 4.7320120578e+02 1.2500000000e+02 0.0000e+00 0.0000e+00
       25  1    1    2    0    0 +6.1421315923e+01 +4.7876656816e+01 -9.8924291830e+00 1.4760627518e+02 1.2500000000e+02 0.0000e+00 0.0000e+00
<mgrwt>
<rscale>  2 0.43814573E+03</rscale>
<asrwt>0</asrwt>
<pdfrwt beam="1">  1       21 0.75758180E-01 0.43814573E+03</pdfrwt>
<pdfrwt beam="2">  1       21 0.12928602E-01 0.43814573E+03</pdfrwt>
<totfact> 0.74085908E+04</totfact>
</mgrwt>
</event>
<event>
 4      0 +1.7228000e-02 3.32223300e+02 7.54677100e-03 1.07015700e-01
       21 -1    0    0  502  501 +0.0000000000e+00 +0.0000000000e+00 +3.7779908525e+02 3.7779908525e+02 0.0000000000e+00 0.0000e+00 -1.0000e+00
       21 -1    0    0  501  502 -0.0000000000e+00 -0.0000000000e+00 -7.3036374211e+01 7.3036374211e+01 0.0000000000e+00 0.0000e+00 -1.0000e+00
       25  1    1    2    0    0 -1.5770492003e+01 -9.5928061502e+01 +2.2046528819e+02 2.7144215718e+02 1.2500000000e+02 0.0000e+00 0.0000e+00
       25  1    1    2    0    0 +1.5770492003e+01 +9.5928061502e+01 +8.4297422846e+01 1.7939330227e+02 1.2500000000e+02 0.0000e+00 0.0000e+00
<mgrwt>
<rscale>  2 0.33222327E+03</rscale>
<asrwt>0</asrwt>
<pdfrwt beam="1">  1       21 0.53971297E-01 0.33222327E+03</pdfrwt>
<pdfrwt beam="2">  1       21 0.10433768E-01 0.33222327E+03</pdfrwt>
<totfact> 0.23610080E+05</totfact>
</mgrwt>
</event>
<event>
 4      0 +1.7228000e-02 5.11945600e+02 7.54677100e-03 1.01070700e-01
       21 -1    0    0  502  501 +0.0000000000e+00 +0.0000000000e+00 +4.1818420018e+02 4.1818420018e+02 0.0000000000e+00 0.0000e+00 1.0000e+00
       21 -1    0    0  501  502 -0.0000000000e+00 -0.0000000000e+00 -1.5668232160e+02 1.5668232160e+02 0.0000000000e+00 0.0000e+00 1.0000e+00
       25  1    1    2    0    0 -4.6777526412e+01 +4.9945781915e+01 -1.0801994851e+02 1.7881842015e+02 1.2500000000e+02 0.0000e+00 0.0000e+00
       25  1    1    2    0    0 +4.6777526412e+01 -4.9945781915e+01 +3.6952182710e+02 3.9604810164e+02 1.2500000000e+02 0.0000e+00 0.0000e+00
<mgrwt>
<rscale>  2 0.51194559E+03</rscale>
<asrwt>0</asrwt>
<pdfrwt beam="1">  1       21 0.59740599E-01 0.51194559E+03</pdfrwt>
<pdfrwt beam="2">  1       21 0.22383189E-01 0.51194559E+03</pdfrwt>
<totfact> 0.44311379E+04</totfact>
</mgrwt>
</event>
<event>
 4      0 +1.7228000e-02 6.48653200e+02 7.54677100e-03 9.80931000e-02
       21 -1    0    0  502  501 +0.0000000000e+00 +0.0000000000e+00 +9.3580711192e+02 9.3580711192e+02 0.0000000000e+00 0.0000e+00 1.0000e+00
       21 -1    0    0  501  502 -0.0000000000e+00 -0.0000000000e+00 -1.1240322503e+02 1.1240322503e+02 0.0000000000e+00 0.0000e+00 1.0000e+00
       25  1    1    2    0    0 -2.6995806638e+02 -1.0629884315e+02 +5.3029696796e+02 6.1726548250e+02 1.2500000000e+02 0.0000e+00 0.0000e+00
       25  1    1    2    0    0 +2.6995806638e+02 +1.0629884315e+02 +2.9310691893e+02 4.3094485445e+02 1.2500000000e+02 0.0000e+00 0.0000e+00
<mgrwt>
<rscale>  2 0.64865318E+03</rscale>
<asrwt>0</asrwt>
<pdfrwt beam="1">  1       21 0.13368673E+00 0.64865318E+03</pdfrwt>
<pdfrwt beam="2">  1       21 0.16057604E-01 0.64865318E+03</pdfrwt>
<totfact> 0.11799676E+04</totfact>
</mgrwt>
</event>
<event>
 4      0 +1.7228000e-02 4.13153800e+02 7.54677100e-03 1.03931800e-01
       21 -1    0    0  502  501 +0.0000000000e+00 +0.0000000000e+00 +7.5468159508e+02 7.5468159508e+02 0.0000000000e+00 0.0000e+00 -1.0000e+00
       21 -1    0    0  501  502 -0.0000000000e+00 -0.0000000000e+00 -5.6545730938e+01 5.6545730938e+01 0.0000000000e+00 0.0000e+00 1.0000e+00
       25  1    1    2    0    0 -6.3638730355e+01 -5.8920180732e+01 +6.2344930695e+02 6.4174411882e+02 1.2500000000e+02 0.0000e+00 0.0000e+00
       25  1    1    2    0    0 +6.3638730355e+01 +5.8920180732e+01 +7.4686557194e+01 1.6948320720e+02 1.2500000000e+02 0.0000e+00 0.0000e+00
<mgrwt>
<rscale>  2 0.41315383E+03</rscale>
<asrwt>0</asrwt>
<pdfrwt beam="1">  1       21 0.10781165E+00 0.41315383E+03</pdfrwt>
<pdfrwt beam="2">  1       21 0.80779620E-02 0.41315383E+03</pdfrwt>
<totfact> 0.75234875E+04</totfact>
</mgrwt>
</event>
<event>
 4      0 +1.7228000e-02 5.41742000e+02 7.54677100e-03 1.00342400e-01
       21 -1    0    0  502  501 +0.0000000000e+00 +0.0000000000e+00 +1.1988025515e+03 1.1988025515e+03 0.0000000000e+00 0.0000e+00 1.0000e+00
       21 -1    0    0  501  502 -0.0000000000e+00 -0.0000000000e+00 -6.1203659654e+01 6.1203659654e+01 0.0000000000e+00 0.0000e+00 1.0000e+00
       25  1    1    2    0    0 +1.9952930815e+01 -1.6339789528e+02 +9.7598195237e+02 9.9762856965e+02 1.2500000000e+02 0.0000e+00 0.0000e+00
       25  1    1    2    0    0 -1.9952930815e+01 +1.6339789528e+02 +1.6161693944e+02 2.6237764147e+02 1.2500000000e+02 0.0000e+00 0.0000e+00
<mgrwt>
<rscale>  2 0.54174202E+03</rscale>
<asrwt>0</asrwt>
<pdfrwt beam="1">  1       21 0.17125749E+00 0.54174202E+03</pdfrwt>
<pdfrwt beam="2">  1       21 0.87433807E-02 0.54174202E+03</pdfrwt>
<totfact> 0.18607679E+04</totfact>
</mgrwt>
</event>
<event>
 4      0 +1.7228000e-02 5.45859500e+02 7.54677100e-03 1.00245700e-01
       21 -1    0    0  502  501 +0.0000000000e+00 +0.0000000000e+00 +1.3141647114e+03 1.3141647114e+03 0.0000000000e+00 0.0000e+00 -1.0000e+00
       21 -1    0    0  501  502 -0.0000000000e+00 -0.0000000000e+00 -5.6682885891e+01 5.6682885891e+01 0.0000000000e+00 0.0000e+00 -1.0000e+00
       25  1    1    2    0    0 +3.3110460112e+01 -1.0499043408e+02 +8.5762983796e+01 1.8734882761e+02 1.2500000000e+02 0.0000e+00 0.0000e+00
       25  1    1    2    0    0 -3.3110460112e+01 +1.0499043408e+02 +1.1717188417e+03 1.1834987697e+03 1.2500000000e+02 0.0000e+00 0.0000e+00
<mgrwt>
<rscale>  2 0.54585950E+03</rscale>
<asrwt>0</asrwt>
<pdfrwt beam="1">  1       21 0.18773780E+00 0.54585950E+03</pdfrwt>
<pdfrwt beam="2">  1       21 0.80975559E-02 0.54585950E+03</pdfrwt>
<totfact> 0.16272865E+04</totfact>
</mgrwt>
</event>
<event>
 4      0 +1.7228000e-02 3.90888900e+02 7.54677100e-03 1.04698100e-01
       21 -1    0    0  502  501 +0.0000000000e+00 +0.0000000000e+00 +6.0228468895e+01 6.0228468895e+01 0.0000000000e+00 0.0000e+00 1.0000e+00
       21 -1    0    0  501  502 -0.0000000000e+00 -0.0000000000e+00 -6.3422706415e+02 6.3422706415e+02 0.0000000000e+00 0.0000e+00 1.0000e+00
       25  1    1    2    0    0 -6.5360406139e+01 +1.3420376033e+02 -2.5669823865e+02 3.2218258442e+02 1.2500000000e+02 0.0000e+00 0.0000e+00
       25  1    1    2    0    0 +6.5360406139e+01 -1.3420376033e+02 -3.1730035661e+02 3.7227294863e+02 1.2500000000e+02 0.0000e+00 0.0000e+00
<mgrwt>
<rscale>  2 0.39088886E+03</rscale>
<asrwt>0</asrwt>
<pdfrwt beam="1">  1       21 0.86040669E-02 0.39088886E+03</pdfrwt>
<pdfrwt beam="2">  1       21 0.90603867E-01 0.39088886E+03</pdfrwt>
<totfact> 0.10291459E+05</totfact>
</mgrwt>
</event>
<event>
 4      0 +1.7228000e-02 3.29962600e+02 7.54677100e-03 1.07115300e-01
       21 -1    0    0  502  501 +0.0000000000e+00 +0.0000000000e+00 +4.3396949221e+01 4.3396949221e+01 0.0000000000e+00 0.0000e+00 -1.0000e+00
       21 -1    0    0  501  502 -0.0000000000e+00 -0.0000000000e+00 -6.2720609527e+02 6.2720609527e+02 0.0000000000e+00 0.0000e+00 -1.0000e+00
       25  1    1    2    0    0 +2.6118024883e+01 -1.3822678429e+01 -5.0233600359e+02 5.1849751992e+02 1.2500000000e+02 0.0000e+00 0.0000e+00
       25  1    1    2    0    0 -2.6118024883e+01 +1.3822678429e+01 -8.1473142464e+01 1.5210552457e+02 1.2500000000e+02 0.0000e+00 0.0000e+00
<mgrwt>
<rscale>  2 0.32996261E+03</rscale>
<asrwt>0</asrwt>
<pdfrwt beam="1">  1       21 0.61995639E-02 0.32996261E+03</pdfrwt>
<pdfrwt beam="2">  1       21 0.89600875E-01 0.32996261E+03</pdfrwt>
<totfact> 0.19036443E+05</totfact>
</mgrwt>
</event>
<event>
 4      0 +1.7228000e-02 3.16567200e+02 7.54677100e-03 1.07724000e-01
       21 -1    0    0  502  501 +0.0000000000e+00 +0.0000000000e+00 +8.3967463297e+02 8.3967463297e+02 0.0000000000e+00 0.0000e+00 1.0000e+00
       21 -1    0    0  501  502 -0.0000000000e+00 -0.0000000000e+00 -2.9837396706e+01 2.9837396706e+01 0.0000000000e+00 0.0000e+00 1.0000e+00
       25  1    1    2    0    0 +5.2531917603e+01 +1.8646917302e+01 +1.8653699441e+02 2.3136196787e+02 1.2500000000e+02 0.0000e+00 0.0000e+00
       25  1    1    2    0    0 -5.2531917603e+01 -1.8646917302e+01 +6.2330024185e+02 6.3815006181e+02 1.2500000000e+02 0.0000e+00 0.0000e+00
<mgrwt>
<rscale>  2 0.31656724E+03</rscale>
<asrwt>0</asrwt>
<pdfrwt beam="1">  1       21 0.11995350E+00 0.31656724E+03</pdfrwt>
<pdfrwt beam="2">  1       21 0.42624857E-02 0.31656724E+03</pdfrwt>
<totfact> 0.17900571E+05</totfact>
</mgrwt>
</event>
<event>
 4      0 +1.7228000e-02 3.53015500e+02 7.54677100e-03 1.06138400e-01
       21 -1    0    0  502  501 +0.0000000000e+00 +0.0000000000e+00 +1.6825546504e+03 1.6825546504e+03 0.0000000000e+00 0.0000e+00 1.0000e+00
       21 -1    0    0  501  502 -0.0000000000e+00 -0.0000000000e+00 -1.8516477729e+01 1.8516477729e+01 0.0000000000e+00 0.0000e+00 1.0000e+00
       25  1    1    2    0    0 -9.8034812383e+01 +6.4893771890e+01 +1.0311632128e+03 1.0453442483e+03 1.2500000000e+02 0.0000e+00 0.0000e+00
       25  1    1    2    0    0 +9.8034812383e+01 -6.4893771890e+01 +6.3287495987e+02 6.5572687981e+02 1.2500000000e+02 0.0000e+00 0.0000e+00
<mgrwt>
<rscale>  2 0.35301550E+03</rscale>
<asrwt>0</asrwt>
<pdfrwt beam="1">  1       21 0.24036485E+00 0.35301550E+03</pdfrwt>
<pdfrwt beam="2">  1       21 0.26452122E-02 0.35301550E+03</pdfrwt>
<totfact> 0.54063376E+04</totfact>
</mgrwt>
</event>
<event>
 4      0 +1.7228000e-02 3.43083000e+02 7.54677100e-03 1.06549000e-01
       21 -1    0    0  502  501 +0.0000000000e+00 +0.0000000000e+00 +1.7887127305e+02 1.7887127305e+02 0.0000000000e+00 0.0000e+00 -1.0000e+00
       21 -1    0    0  501  502 -0.0000000000e+00 -0.0000000000e+00 -1.6451212976e+02 1.6451212976e+02 0.0000000000e+00 0.0000e+00 -1.0000e+00
       25  1    1    2    0    0 -1.9512104018e+01 +1.5516379013e+01 +1.2208432015e+02 1.7649663296e+02 1.2500000000e+02 0.0000e+00 0.0000e+00
       25  1    1    2    0    0 +1.9512104018e+01 -1.5516379013e+01 -1.0772517685e+02 1.6688676984e+02 1.2500000000e+02 0.0000e+00 0.0000e+00
<mgrwt>
<rscale>  2 0.34308305E+03</rscale>
<asrwt>0</asrwt>
<pdfrwt beam="1">  1       21 0.25553039E-01 0.34308305E+03</pdfrwt>
<pdfrwt beam="2">  1       21 0.23501733E-01 0.34308305E+03</pdfrwt>
<totfact> 0.23890736E+05</totfact>
</mgrwt>
</event>
<event>
 4      0 +1.7228000e-02 4.07960200e+02 7.54677100e-03 1.04105800e-01
       21 -1    0    0  502  501 +0.0000000000e+00 +0.0000000000e+00 +2.2164374964e+02 2.2164374964e+02 0.0000000000e+00 0.0000e+00 1.0000e+00
       21 -1    0    0  501  502 -0.0000000000e+00 -0.0000000000e+00 -1.8772415963e+02 1.8772415963e+02 0.0000000000e+00 0.0000e+00 1.0000e+00
       25  1    1    2    0    0 +5.7716877810e+01 -1.7152582856e+01 +1.6699977021e+02 2.1711603426e+02 1.2500000000e+02 0.0000e+00 0.0000e+00
       25  1    1    2    0    0 -5.7716877810e+01 +1.7152582856e+01 -1.3308018020e+02 1.9225187501e+02 1.2500000000e+02 0.0000e+00 0.0000e+00
<mgrwt>
<rscale>  2 0.40796023E+03</rscale>
<asrwt>0</asrwt>
<pdfrwt beam="1">  1       21 0.31663393E-01 0.40796023E+03</pdfrwt>
<pdfrwt beam="2">  1       21 0.26817737E-01 0.40796023E+03</pdfrwt>
<totfact> 0.11983144E+05</totfact>
</mgrwt>
</event>
<event>
 4      0 +1.7228000e-02 1.29361300e+03 7.54677100e-03 9.03464600e-02
       21 -1    0    0  502  501 +0.0000000000e+00 +0.0000000000e+00 +5.1055964568e+02 5.1055964568e+02 0.0000000000e+00 0.0000e+00 1.0000e+00
       21 -1    0    0  501  502 -0.0000000000e+00 -0.0000000000e+00 -8.1941141390e+02 8.1941141390e+02 0.0000000000e+00 0.0000e+00 1.0000e+00
       25  1    1    2    0    0 +5.8763582036e+02 -2.3109855347e+02 -8.9313378705e+01 6.4986481549e+02 1.2500000000e+02 0.0000e+00 0.0000e+00
       25  1    1    2    0    0 -5.8763582036e+02 +2.3109855347e+02 -2.1953838951e+02 6.8010624410e+02 1.2500000000e+02 0.0000e+00 0.0000e+00
<mgrwt>
<rscale>  2 0.12936126E+04</rscale>
<asrwt>0</asrwt>
<pdfrwt beam="1">  1       21 0.72937092E-01 0.12936126E+04</pdfrwt>
<pdfrwt beam="2">  1       21 0.11705877E+00 0.12936126E+04</pdfrwt>
<totfact> 0.65977888E+02</totfact>
</mgrwt>
</event>
<event>
 4      0 +1.7228000e-02 6.79403800e+02 7.54677100e-03 9.75311800e-02
       21 -1    0    0  502  501 +0.0000000000e+00 +0.0000000000e+00 +5.9020145326e+01 5.9020145326e+01 0.0000000000e+00 0.0000e+00 -1.0000e+00
       21 -1    0    0  501  502 -0.0000000000e+00 -0.0000000000e+00 -1.9552199510e+03 1.9552199510e+03 0.0000000000e+00 0.0000e+00 -1.0000e+00
       25  1    1    2    0    0 -2.0990427014e+02 -1.9299107333e+01 -1.6455341881e+03 1.6636826688e+03 1.2500000000e+02 0.0000e+00 0.0000e+00
       25  1    1    2    0    0 +2.0990427014e+02 +1.9299107333e+01 -2.5066561752e+02 3.5055742750e+02 1.2500000000e+02 0.0000e+00 0.0000e+00
<mgrwt>
<rscale>  2 0.67940376E+03</rscale>
<asrwt>0</asrwt>
<pdfrwt beam="1">  1       21 0.84314519E-02 0.67940376E+03</pdfrwt>
<pdfrwt beam="2">  1       21 0.27931705E+00 0.67940376E+03</pdfrwt>
<totfact> 0.37736390E+03</totfact>
</mgrwt>
</event>
<event>
 4      0 +1.7228000e-02 4.32492500e+02 7.54677100e-03 1.03307500e-01
       21 -1    0    0  502  501 +0.0000000000e+00 +0.0000000000e+00 +5.1606363934e+02 5.1606363934e+02 0.0000000000e+00 0.0000e+00 -1.0000e+00
       21 -1    0    0  501  502 -0.0000000000e+00 -0.0000000000e+00 -9.0613718922e+01 9.0613718922e+01 0.0000000000e+00 0.0000e+00 -1.0000e+00
       25  1    1    2    0    0 +4.1224506738e+01 -3.2691933215e+01 +4.4899187209e+02 4.6902763635e+02 1.2500000000e+02 0.0000e+00 0.0000e+00
       25  1    1    2    0    0 -4.1224506738e+01 +3.2691933215e+01 -2.3541951677e+01 1.3764972191e+02 1.2500000000e+02 0.0000e+00 0.0000e+00
<mgrwt>
<rscale>  2 0.43249252E+03</rscale>
<asrwt>0</asrwt>
<pdfrwt beam="1">  1       21 0.73723375E-01 0.43249252E+03</pdfrwt>
<pdfrwt beam="2">  1       21 0.12944817E-01 0.43249252E+03</pdfrwt>
<totfact> 0.78737785E+04</totfact>
</mgrwt>
</event>
<event>
 4      0 +1.7228000e-02 5.48531700e+02 7.54677100e-03 1.00183400e-01
       21 -1    0    0  502  501 +0.0000000000e+00 +0.0000000000e+00 +1.4324605764e+02 1.4324605764e+02 0.0000000000e+00 0.0000e+00 -1.0000e+00
       21 -1    0    0  501  502 -0.0000000000e+00 -0.0000000000e+00 -5.2512261533e+02 5.2512261533e+02 0.0000000000e+00 0.0000e+00 -1.0000e+00
       25  1    1    2    0    0 +1.1177712518e+02 -1.2862720048e+02 +2.2059194352e+01 2.1248691835e+02 1.2500000000e+02 0.0000e+00 0.0000e+00
       25  1    1    2    0    0 -1.1177712518e+02 +1.2862720048e+02 -4.0393575204e+02 4.5588175462e+02 1.2500000000e+02 0.0000e+00 0.0000e+00
<mgrwt>
<rscale>  2 0.54853166E+03</rscale>
<asrwt>0</asrwt>
<pdfrwt beam="1">  1       21 0.20463723E-01 0.54853166E+03</pdfrwt>
<pdfrwt beam="2">  1       21 0.75017515E-01 0.54853166E+03</pdfrwt>
<totfact> 0.31365302E+04</totfact>
</mgrwt>
</event>
<event>
 4      0 +1.7228000e-02 4.49728700e+02 7.54677100e-03 1.02780300e-01
       21 -1    0    0  502  501 +0.0000000000e+00 +0.0000000000e+00 +1.4008377707e+02 1.4008377707e+02 0.0000000000e+00 0.0000e+00 -1.0000e+00
       21 -1    0    0  501  502 -0.0000000000e+00 -0.0000000000e+00 -3.6095524189e+02 3.6095524189e+02 0.0000000000e+00 0.0000e+00 -1.0000e+00
       25  1    1    2    0    0 -9.8308851011e+01 +8.7876988740e+01 +3.7163463388e+01 1.8545381729e+02 1.2500000000e+02 0.0000e+00 0.0000e+00
       25  1    1    2    0    0 +9.8308851011e+01 -8.7876988740e+01 -2.5803492821e+02 3.1558520167e+02 1.2500000000e+02 0.0000e+00 0.0000e+00
<mgrwt>
<rscale>  2 0.44972869E+03</rscale>
<asrwt>0</asrwt>
<pdfrwt beam="1">  1       21 0.20011968E-01 0.44972869E+03</pdfrwt>
<pdfrwt beam="2">  1       21 0.51565034E-01 0.44972869E+03</pdfrwt>
<totfact> 0.76465008E+04</totfact>
</mgrwt>
</event>
<event>
 4      0 +1.7228000e-02 4.38503300e+02 7.54677100e-03 1.03120700e-01
       21 -1    0    0  502  501 +0.0000000000e+00 +0.0000000000e+00 +1.6340923029e+03 1.6340923029e+03 0.0000000000e+00 0.0000e+00 1.0000e+00
       21 -1    0    0  501  502 -0.0000000000e+00 -0.0000000000e+00 -2.9417727499e+01 2.9417727499e+01 0.0000000000e+00 0.0000e+00 1.0000e+00
       25  1    1    2    0    0 +4.2289899005e+01 +8.1140519055e+01 +1.3909467904e+03 1.3995464241e+03 1.2500000000e+02 0.0000e+00 0.0000e+00
       25  1    1    2    0    0 -4.2289899005e+01 -8.1140519055e+01 +2.1372778503e+02 2.6396360636e+02 1.2500000000e+02 0.0000e+00 0.0000e+00
<mgrwt>
<rscale>  2 0.43850328E+03</rscale>
<asrwt>0</asrwt>
<pdfrwt beam="1">  1       21 0.23344170E+00 0.43850328E+03</pdfrwt>
<pdfrwt beam="2">  1       21 0.42025335E-02 0.43850328E+03</pdfrwt>
<totfact> 0.26458134E+04</totfact>
</mgrwt>
</event>
<event>
 4      0 +1.7228000e-02 3.68634800e+02 7.54677100e-03 1.05521600e-01
       21 -1    0    0  502  501 +0.0000000000e+00 +0.0000000000e+00 +3.9270036348e+01 3.9270036348e+01 0.0000000000e+00 0.0000e+00 -1.0000e+00
       21 -1    0    0  501  502 -0.0000000000e+00 -0.0000000000e+00 -8.6510987339e+02 8.6510987339e+02 0.0000000000e+00 0.0000e+00 -1.0000e+00
       25  1    1    2    0    0 -1.2548401560e+02 -1.4730479344e+01 -5.3272323978e+02 5.6158906274e+02 1.2500000000e+02 0.0000e+00 0.0000e+00
       25  1    1    2    0    0 +1.2548401560e+02 +1.4730479344e+01 -2.9311659726e+02 3.4279084699e+02 1.2500000000e+02 0.0000e+00 0.0000e+00
<mgrwt>
<rscale>  2 0.36863476E+03</rscale>
<asrwt>0</asrwt>
<pdfrwt beam="1">  1       21 0.56100062E-02 0.36863476E+03</pdfrwt>
<pdfrwt beam="2">  1       21 0.12358710E+00 0.36863476E+03</pdfrwt>
<totfact> 0.10227132E+05</totfact>
</mgrwt>
</event>
<event>
 4      0 +1.7228000e-02 5.56257300e+02 7.54677100e-03 1.00005600e-01
       21 -1    0    0  502  501 +0.0000000000e+00 +0.0000000000e+00 +3.4026339408e+02 3.4026339408e+02 0.0000000000e+00 0.0000e+00 -1.0000e+00
       21 -1    0    0  501  502 -0.0000000000e+00 -0.0000000000e+00 -2.2734016962e+02 2.2734016962e+02 0.0000000000e+00 0.0000e+00 -1.0000e+00
       25  1    1    2    0    0 -4.1945290069e+01 +6.3657448462e+01 -1.8483352301e+02 2.3579675429e+02 1.2500000000e+02 0.0000e+00 0.0000e+00
       25  1    1    2    0    0 +4.1945290069e+01 -6.3657448462e+01 +2.9775674748e+02 3.3180680941e+02 1.2500000000e+02 0.0000e+00 0.0000e+00
<mgrwt>
<rscale>  2 0.55625727E+03</rscale>
<asrwt>0</asrwt>
<pdfrwt beam="1">  1       21 0.48609056E-01 0.55625727E+03</pdfrwt>
<pdfrwt beam="2">  1       21 0.32477167E-01 0.55625727E+03</pdfrwt>
<totfact> 0.32948055E+04</totfact>
</mgrwt>
</event>
<event>
 4      0 +1.7228000e-02 3.89582100e+02 7.54677100e-03 1.04744800e-01
       21 -1    0    0  502  501 +0.0000000000e+00 +0.0000000000e+00 +2.2594481340e+02 2.2594481340e+02 0.0000000000e+00 0.0000e+00 1.0000e+00
       21 -1    0    0  501  502 -0.0000000000e+00 -0.0000000000e+00 -1.6793287370e+02 1.6793287370e+02 0.0000000000e+00 0.0000e+00 1.0000e+00
       25  1    1    2    0    0 +8.8871647802e+01 -7.5012645187e+01 -6.5801618177e+01 1.8297518869e+02 1.2500000000e+02 0.0000e+00 0.0000e+00
       25  1    1    2    0    0 -8.8871647802e+01 +7.5012645187e+01 +1.2381355788e+02 2.1090249841e+02 1.2500000000e+02 0.0000e+00 0.0000e+00
<mgrwt>
<rscale>  2 0.38958214E+03</rscale>
<asrwt>0</asrwt>
<pdfrwt beam="1">  1       21 0.32277831E-01 0.38958214E+03</pdfrwt>
<pdfrwt beam="2">  1       21 0.23990410E-01 0.38958214E+03</pdfrwt>
<totfact> 0.14371257E+05</totfact>
</mgrwt>
</event>
<event>
 4      0 +1.7228000e-02 3.03418800e+02 7.54677100e-03 1.08354400e-01
       21 -1    0    0  502  501 +0.0000000000e+00 +0.0000000000e+00 +2.2185486469e+01 2.2185486469e+01 0.0000000000e+00 0.0000e+00 1.0000e+00
       21 -1    0    0  501  502 -0.0000000000e+00 -0.0000000000e+00 -1.0374237045e+03 1.0374237045e+03 0.0000000000e+00 0.0000e+00 1.0000e+00
       25  1    1    2    0    0 -2.5813591785e+01 -1.0367172266e+01 -7.9169306698e+02 8.0198299987e+02 1.2500000000e+02 0.0000e+00 0.0000e+00
       25  1    1    2    0    0 +2.5813591785e+01 +1.0367172266e+01 -2.2354515107e+02 2.5762619112e+02 1.2500000000e+02 0.0000e+00 0.0000e+00
<mgrwt>
<rscale>  2 0.30341885E+03</rscale>
<asrwt>0</asrwt>
<pdfrwt beam="1">  1       21 0.31693547E-02 0.30341885E+03</pdfrwt>
<pdfrwt beam="2">  1       21 0.14820341E+00 0.30341885E+03</pdfrwt>
<totfact> 0.17130670E+05</totfact>
</mgrwt>
</event>
<event>
 4      0 +1.7228000e-02 3.67858000e+02 7.54677100e-03 1.05551500e-01
       21 -1    0    0  502  501 +0.0000000000e+00 +0.0000000000e+00 +5.1453413623e+01 5.1453413623e+01 0.0000000000e+00 0.0000e+00 1.0000e+00
       21 -1    0    0  501  502 -0.0000000000e+00 -0.0000000000e+00 -6.5748541738e+02 6.5748541738e+02 0.0000000000e+00 0.0000e+00 1.0000e+00
       25  1    1    2    0    0 +2.8671484869e+01 -8.3086046856e+00 -4.9430403818e+01 1.3769332510e+02 1.2500000000e+02 0.0000e+00 0.0000e+00
       25  1    1    2    0    0 -2.8671484869e+01 +8.3086046856e+00 -5.5660159994e+02 5.7124550590e+02 1.2500000000e+02 0.0000e+00 0.0000e+00
<mgrwt>
<rscale>  2 0.36785796E+03</rscale>
<asrwt>0</asrwt>
<pdfrwt beam="1">  1       21 0.73504881E-02 0.36785796E+03</pdfrwt>
<pdfrwt beam="2">  1       21 0.93926483E-01 0.36785796E+03</pdfrwt>
<totfact> 0.12542866E+05</totfact>
</mgrwt>
</event>
<event>
 4      0 +1.7228000e-02 5.52311400e+02 7.54677100e-03 1.00096000e-01
       21 -1    0    0  502  501 +0.0000000000e+00 +0.0000000000e+00 +2.3656461121e+02 2.3656461121e+02 0.0000000000e+00 0.0000e+00 -1.0000e+00
       21 -1    0    0  501  502 -0.0000000000e+00 -0.0000000000e+00 -3.2237272257e+02 3.2237272257e+02 0.0000000000e+00 0.0000e+00 -1.0000e+00
       25  1    1    2    0    0 -2.0681292042e+02 +4.1203563876e+01 +8.5773462400e+01 2.5971408237e+02 1.2500000000e+02 0.0000e+00 0.0000e+00
       25  1    1    2    0    0 +2.0681292042e+02 -4.1203563876e+01 -1.7158157376e+02 2.9922325141e+02 1.2500000000e+02 0.0000e+00 0.0000e+00
<mgrwt>
<rscale>  2 0.55231143E+03</rscale>
<asrwt>0</asrwt>
<pdfrwt beam="1">  1       21 0.33794944E-01 0.55231143E+03</pdfrwt>
<pdfrwt beam="2">  1       21 0.46053246E-01 0.55231143E+03</pdfrwt>
<totfact> 0.34118904E+04</totfact>
</mgrwt>
</event>
<event>
 4      0 +1.7228000e-02 4.68397500e+02 7.54677100e-03 1.02237300e-01
       21 -1    0    0  502  501 +0.0000000000e+00 +0.0000000000e+00 +2.3433205090e+02 2.3433205090e+02 0.0000000000e+00 0.0000e+00 -1.0000e+00
       21 -1    0    0  501  502 -0.0000000000e+00 -0.0000000000e+00 -2.3406548748e+02 2.3406548748e+02 0.0000000000e+00 0.0000e+00 -1.0000e+00
       25  1    1    2    0    0 +8.4362139598e+01 -7.8281296681e+01 -1.6104712073e+02 2.3410704198e+02 1.2500000000e+02 0.0000e+00 0.0000e+00
       25  1    1    2    0    0 -8.4362139598e+01 +7.8281296681e+01 +1.6131368416e+02 2.3429049640e+02 1.2500000000e+02 0.0000e+00 0.0000e+00
<mgrwt>
<rscale>  2 0.46839746E+03</rscale>
<asrwt>0</asrwt>
<pdfrwt beam="1">  1       21 0.33476007E-01 0.46839746E+03</pdfrwt>
<pdfrwt beam="2">  1       21 0.33437927E-01 0.46839746E+03</pdfrwt>
<totfact> 0.68356931E+04</totfact>
</mgrwt>
</event>
<event>
 4      0 +1.7228000e-02 3.91439800e+02 7.54677100e-03 1.04678500e-01
       21 -1    0    0  502  501 +0.0000000000e+00 +0.0000000000e+00 +2.5517854118e+02 2.5517854118e+02 0.0000000000e+00 0.0000e+00 -1.0000e+00
       21 -1    0    0  501  502 -0.0000000000e+00 -0.0000000000e+00 -1.5011556851e+02 1.5011556851e+02 0.0000000000e+00 0.0000e+00 -1.0000e+00
       25  1    1    2    0    0 -6.3379140661e+01 +7.1062088205e+01 +1.7334256855e+02 2.3396448859e+02 1.2500000000e+02 0.0000e+00 0.0000e+00
       25  1    1    2    0    0 +6.3379140661e+01 -7.1062088205e+01 -6.8279595876e+01 1.7132962109e+02 1.2500000000e+02 0.0000e+00 0.0000e+00
<mgrwt>
<rscale>  2 0.39143976E+03</rscale>
<asrwt>0</asrwt>
<pdfrwt beam="1">  1       21 0.36454077E-01 0.39143976E+03</pdfrwt>
<pdfrwt beam="2">  1       21 0.21445081E-01 0.39143976E+03</pdfrwt>
<totfact> 0.13949565E+05</totfact>
</mgrwt>
</event>
<event>
 4      0 +1.7228000e-02 7.90231900e+02 7.54677100e-03 9.57426500e-02
       21 -1    0    0  502  501 +0.0000000000e+00 +0.0000000000e+00 +1.9527843144e+02 1.9527843144e+02 0.0000000000e+00 0.0000e+00 -1.0000e+00
       21 -1    0    0  501  502 -0.0000000000e+00 -0.0000000000e+00 -7.9945649137e+02 7.9945649137e+02 0.0000000000e+00 0.0000e+00 -1.0000e+00
       25  1    1    2    0    0 -3.1390154203e+02 +1.0609485819e+02 -5.2265133201e+02 6.3133169719e+02 1.2500000000e+02 0.0000e+00 0.0000e+00
       25  1    1    2    0    0 +3.1390154203e+02 -1.0609485819e+02 -8.1526727923e+01 3.6340322562e+02 1.2500000000e+02 0.0000e+00 0.0000e+00
<mgrwt>
<rscale>  2 0.79023189E+03</rscale>
<asrwt>0</asrwt>
<pdfrwt beam="1">  1       21 0.27896919E-01 0.79023189E+03</pdfrwt>
<pdfrwt beam="2">  1       21 0.11420807E+00 0.79023189E+03</pdfrwt>
<totfact> 0.59403231E+03</totfact>
</mgrwt>
</event>
<event>
 4      0 +1.7228000e-02 3.80752400e+02 7.54677100e-03 1.05065600e-01
       21 -1    0    0  502  501 +0.0000000000e+00 +0.0000000000e+00 +1.2565921755e+03 1.2565921755e+03 0.0000000000e+00 0.0000e+00 -1.0000e+00
       21 -1    0    0  501  502 -0.0000000000e+00 -0.0000000000e+00 -2.8842372836e+01 2.8842372836e+01 0.0000000000e+00 0.0000e+00 -1.0000e+00
       25  1    1    2    0    0 -5.4777743095e+01 +1.0042477956e+02 +9.0687847076e+02 9.2257211004e+02 1.2500000000e+02 0.0000e+00 0.0000e+00
       25  1    1    2    0    0 +5.4777743095e+01 -1.0042477956e+02 +3.2087133186e+02 3.6286243826e+02 1.2500000000e+02 0.0000e+00 0.0000e+00
<mgrwt>
<rscale>  2 0.38075241E+03</rscale>
<asrwt>0</asrwt>
<pdfrwt beam="1">  1       21 0.17951313E+00 0.38075241E+03</pdfrwt>
<pdfrwt beam="2">  1       21 0.41203398E-02 0.38075241E+03</pdfrwt>
<totfact> 0.63090025E+04</totfact>
</mgrwt>
</event>
<event>
 4      0 +1.7228000e-02 3.51082200e+02 7.54677100e-03 1.06217200e-01
       21 -1    0    0  502  501 +0.0000000000e+00 +0.0000000000e+00 +2.5513235429e+01 2.5513235429e+01 0.0000000000e+00 0.0000e+00 1.0000e+00
       21 -1    0    0  501  502 -0.0000000000e+00 -0.0000000000e+00 -1.2077916086e+03 1.2077916086e+03 0.0000000000e+00 0.0000e+00 1.0000e+00
       25  1    1    2    0    0 +9.6703413911e+01 -6.8450960929e+01 -4.7187814640e+02 5.0232566066e+02 1.2500000000e+02 0.0000e+00 0.0000e+00
       25  1    1    2    0    0 -9.6703413911e+01 +6.8450960929e+01 -7.1040022681e+02 7.3097918341e+02 1.2500000000e+02 0.0000e+00 0.0000e+00
<mgrwt>
<rscale>  2 0.35108217E+03</rscale>
<asrwt>0</asrwt>
<pdfrwt beam="1">  1       21 0.36447480E-02 0.35108217E+03</pdfrwt>
<pdfrwt beam="2">  1       21 0.17254165E+00 0.35108217E+03</pdfrwt>
<totfact> 0.87842582E+04</totfact>
</mgrwt>
</event>
<event>
 4      0 +1.7228000e-02 5.91991400e+02 7.54677100e-03 9.92216200e-02
       21 -1    0    0  502  501 +0.0000000000e+00 +0.0000000000e+00 +3.1049714362e+02 3.1049714362e+02 0.0000000000e+00 0.0000e+00 1.0000e+00
       21 -1    0    0  501  502 -0.0000000000e+00 -0.0000000000e+00 -2.8217149589e+02 2.8217149589e+02 0.0000000000e+00 0.0000e+00 1.0000e+00
       25  1    1    2    0    0 -2.9491884364e+01 +2.6057787020e+02 -4.2628133724e+01 2.9362008696e+02 1.2500000000e+02 0.0000e+00 0.0000e+00
       25  1    1    2    0    0 +2.9491884364e+01 -2.6057787020e+02 +7.0953781452e+01 2.9904855255e+02 1.2500000000e+02 0.0000e+00 0.0000e+00
<mgrwt>
<rscale>  2 0.59199136E+03</rscale>
<asrwt>0</asrwt>
<pdfrwt beam="1">  1       21 0.44356735E-01 0.59199136E+03</pdfrwt>
<pdfrwt beam="2">  1       21 0.40310214E-01 0.59199136E+03</pdfrwt>
<totfact> 0.25544164E+04</totfact>
</mgrwt>
</event>
<event>
 4      0 +1.7228000e-02 3.76333600e+02 7.54677100e-03 1.05229700e-01
       21 -1    0    0  502  501 +0.0000000000e+00 +0.0000000000e+00 +9.7742204821e+02 9.7742204821e+02 0.0000000000e+00 0.0000e+00 1.0000e+00
       21 -1    0    0  501  502 -0.0000000000e+00 -0.0000000000e+00 -3.6224627866e+01 3.6224627866e+01 0.0000000000e+00 0.0000e+00 1.0000e+00
       25  1    1    2    0    0 -1.2909629224e+02 +1.2774900827e+01 +6.1695897151e+02 6.4272266437e+02 1.2500000000e+02 0.0000e+00 0.0000e+00
       25  1    1    2    0    0 +1.2909629224e+02 -1.2774900827e+01 +3.2423844883e+02 3.7092401171e+02 1.2500000000e+02 0.0000e+00 0.0000e+00
<mgrwt>
<rscale>  2 0.37633363E+03</rscale>
<asrwt>0</asrwt>
<pdfrwt beam="1">  1       21 0.13963171E+00 0.37633363E+03</pdfrwt>
<pdfrwt beam="2">  1       21 0.51749474E-02 0.37633363E+03</pdfrwt>
<totfact> 0.85531432E+04</totfact>
</mgrwt>
</event>
<event>
 4      0 +1.7228000e-02 7.89606600e+02 7.54677100e-03 9.57518400e-02
       21 -1    0    0  502  501 +0.0000000000e+00 +0.0000000000e+00 +8.4036696344e+01 8.4036696344e+01 0.0000000000e+00 0.0000e+00 1.0000e+00
       21 -1    0    0  501  502 -0.0000000000e+00 -0.0000000000e+00 -1.8547805605e+03 1.8547805605e+03 0.0000000000e+00 0.0000e+00 1.0000e+00
       25  1    1    2    0    0 +1.3500753259e+02 -3.0987334504e+02 -4.8947668763e+02 6.0783299643e+02 1.2500000000e+02 0.0000e+00 0.0000e+00
       25  1    1    2    0    0 -1.3500753259e+02 +3.0987334504e+02 -1.2812671765e+03 1.3309842604e+03 1.2500000000e+02 0.0000e+00 0.0000e+00
<mgrwt>
<rscale>  2 0.78960656E+03</rscale>
<asrwt>0</asrwt>
<pdfrwt beam="1">  1       21 0.12005243E-01 0.78960656E+03</pdfrwt>
<pdfrwt beam="2">  1       21 0.26496865E+00 0.78960656E+03</pdfrwt>
<totfact> 0.23635649E+03</totfact>
</mgrwt>
</event>
<event>
 4      0 +1.7228000e-02 3.35862000e+02 7.54677100e-03 1.06857200e-01
       21 -1    0    0  502  501 +0.0000000000e+00 +0.0000000000e+00 +1.1533893193e+02 1.1533893193e+02 0.0000000000e+00 0.0000e+00 -1.0000e+00
       21 -1    0    0  501  502 -0.0000000000e+00 -0.0000000000e+00 -2.4450387172e+02 2.4450387172e+02 0.0000000000e+00 0.0000e+00 -1.0000e+00
       25  1    1    2    0    0 -5.8802105912e+01 -6.7745410631e+01 +7.5180091883e+00 1.5404106200e+02 1.2500000000e+02 0.0000e+00 0.0000e+00
       25  1    1    2    0    0 +5.8802105912e+01 +6.7745410631e+01 -1.3668294898e+02 2.0580174164e+02 1.2500000000e+02 0.0000e+00 0.0000e+00
<mgrwt>
<rscale>  2 0.33586197E+03</rscale>
<asrwt>0</asrwt>
<pdfrwt beam="1">  1       21 0.16476990E-01 0.33586197E+03</pdfrwt>
<pdfrwt beam="2">  1       21 0.34929125E-01 0.33586197E+03</pdfrwt>
<totfact> 0.25247466E+05</totfact>
</mgrwt>
</event>
<event>
 4      0 +1.7228000e-02 9.19628700e+02 7.54677100e-03 9.40137200e-02
       21 -1    0    0  502  501 +0.0000000000e+00 +0.0000000000e+00 +1.0092500757e+02 1.0092500757e+02 0.0000000000e+00 0.0000e+00 1.0000e+00
       21 -1    0    0  501  502 -0.0000000000e+00 -0.0000000000e+00 -2.0949143153e+03 2.0949143153e+03 0.0000000000e+00 0.0000e+00 1.0000e+00
       25  1    1    2    0    0 +2.1780041067e+02 +8.5044334407e+01 -9.9968894306e+01 2.8335196758e+02 1.2500000000e+02 0.0000e+00 0.0000e+00
       25  1    1    2    0    0 -2.1780041067e+02 -8.5044334407e+01 -1.8940204134e+03 1.9124873553e+03 1.2500000000e+02 0.0000e+00 0.0000e+00
<mgrwt>
<rscale>  2 0.91962871E+03</rscale>
<asrwt>0</asrwt>
<pdfrwt beam="1">  1       21 0.14417858E-01 0.91962871E+03</pdfrwt>
<pdfrwt beam="2">  1       21 0.29927349E+00 0.91962871E+03</pdfrwt>
<totfact> 0.99789632E+02</totfact>
</mgrwt>
</event>
<event>
 4      0 +1.7228000e-02 1.24912500e+03 7.54677100e-03 9.07091200e-02
       21 -1    0    0  502  501 +0.0000000000e+00 +0.0000000000e+00 +1.6840405792e+02 1.6840405792e+02 0.0000000000e+00 0.0000e+00 -1.0000e+00
       21 -1    0    0  501  502 -0.0000000000e+00 -0.0000000000e+00 -2.3163247567e+03 2.3163247567e+03 0.0000000000e+00 0.0000e+00 1.0000e+00
       25  1    1    2    0    0 -2.0646690694e+02 -2.8789914361e+02 -8.1485614290e+01 3.8442087078e+02 1.2500000000e+02 0.0000e+00 0.0000e+00
       25  1    1    2    0    0 +2.0646690694e+02 +2.8789914361e+02 -2.0664350845e+03 2.1003079439e+03 1.2500000000e+02 0.0000e+00 0.0000e+00
<mgrwt>
<rscale>  2 0.12491253E+04</rscale>
<asrwt>0</asrwt>
<pdfrwt beam="1">  1       21 0.24057723E-01 0.12491253E+04</pdfrwt>
<pdfrwt beam="2">  1       21 0.33090353E+00 0.12491253E+04</pdfrwt>
<totfact> 0.21998722E+02</totfact>
</mgrwt>
</event>
<event>
 4      0 +1.7228000e-02 6.95502500e+02 7.54677100e-03 9.72495500e-02
       21 -1    0    0  502  501 +0.0000000000e+00 +0.0000000000e+00 +1.1966832585e+02 1.1966832585e+02 0.0000000000e+00 0.0000e+00 -1.0000e+00
       21 -1    0    0  501  502 -0.0000000000e+00 -0.0000000000e+00 -1.0105508760e+03 1.0105508760e+03 0.0000000000e+00 0.0000e+00 -1.0000e+00
       25  1    1    2    0    0 -1.1722060777e+02 -2.2939415694e+02 -1.2475384977e+02 3.1233135155e+02 1.2500000000e+02 0.0000e+00 0.0000e+00
       25  1    1    2    0    0 +1.1722060777e+02 +2.2939415694e+02 -7.6612870042e+02 8.1788785034e+02 1.2500000000e+02 0.0000e+00 0.0000e+00
<mgrwt>
<rscale>  2 0.69550250E+03</rscale>
<asrwt>0</asrwt>
<pdfrwt beam="1">  1       21 0.17095475E-01 0.69550250E+03</pdfrwt>
<pdfrwt beam="2">  1       21 0.14436441E+00 0.69550250E+03</pdfrwt>
<totfact> 0.84483755E+03</totfact>
</mgrwt>
</event>
<event>
 4      0 +1.7228000e-02 3.64319400e+02 7.54677100e-03 1.05688700e-01
       21 -1    0    0  502  501 +0.0000000000e+00 +0.0000000000e+00 +2.1809879061e+02 2.1809879061e+02 0.0000000000e+00 0.0000e+00 1.0000e+00
       21 -1    0    0  501  502 -0.0000000000e+00 -0.0000000000e+00 -1.5214278348e+02 1.5214278348e+02 0.0000000000e+00 0.0000e+00 1.0000e+00
       25  1    1    2    0    0 +1.0250080196e+02 +8.1075289328e+01 +1.0770086901e+01 1.8116459840e+02 1.2500000000e+02 0.0000e+00 0.0000e+00
       25  1    1    2    0    0 -1.0250080196e+02 -8.1075289328e+01 +5.5185920226e+01 1.8907697569e+02 1.2500000000e+02 0.0000e+00 0.0000e+00
<mgrwt>
<rscale>  2 0.36431940E+03</rscale>
<asrwt>0</asrwt>
<pdfrwt beam="1">  1       21 0.31156970E-01 0.36431940E+03</pdfrwt>
<pdfrwt beam="2">  1       21 0.21734683E-01 0.36431940E+03</pdfrwt>
<totfact> 0.18730138E+05</totfact>
</mgrwt>
</event>
<event>
 4      0 +1.7228000e-02 3.12942900e+02 7.54677100e-03 1.07894400e-01
       21 -1    0    0  502  501 +0.0000000000e+00 +0.0000000000e+00 +8.4287577693e+00 8.4287577693e+00 0.0000000000e+00 0.0000e+00 1.0000e+00
       21 -1    0    0  501  502 -0.0000000000e+00 -0.0000000000e+00 -2.9047361919e+03 2.9047361919e+03 0.0000000000e+00 0.0000e+00 1.0000e+00
       25  1    1    2    0    0 -7.4845090388e+00 +5.7439787296e+01 -2.1387091498e+03 2.1431418933e+03 1.2500000000e+02 0.0000e+00 0.0000e+00
       25  1    1    2    0    0 +7.4845090388e+00 -5.7439787296e+01 -7.5759828428e+02 7.7002305639e+02 1.2500000000e+02 0.0000e+00 0.0000e+00
<mgrwt>
<rscale>  2 0.31294292E+03</rscale>
<asrwt>0</asrwt>
<pdfrwt beam="1">  1       21 0.12041068E-02 0.31294292E+03</pdfrwt>
<pdfrwt beam="2">  1       21 0.41496280E+00 0.31294292E+03</pdfrwt>
<totfact> 0.17456750E+04</totfact>
</mgrwt>
</event>
<event>
 4      0 +1.7228000e-02 4.89024800e+02 7.54677100e-03 1.01668400e-01
       21 -1    0    0  502  501 +0.0000000000e+00 +0.0000000000e+00 +1.2458836093e+02 1.2458836093e+02 0.0000000000e+00 0.0000e+00 1.0000e+00
       21 -1    0    0  501  502 -0.0000000000e+00 -0.0000000000e+00 -4.7987086832e+02 4.7987086832e+02 0.0000000000e+00 0.0000e+00 1.0000e+00
       25  1    1    2    0    0 +9.3302098692e+01 -1.8648580418e+02 -2.0985187982e+02 3.2116202803e+02 1.2500000000e+02 0.0000e+00 0.0000e+00
       25  1    1    2    0    0 -9.3302098692e+01 +1.8648580418e+02 -1.4543062756e+02 2.8329720121e+02 1.2500000000e+02 0.0000e+00 0.0000e+00
<mgrwt>
<rscale>  2 0.48902485E+03</rscale>
<asrwt>0</asrwt>
<pdfrwt beam="1">  1       21 0.17798337E-01 0.48902485E+03</pdfrwt>
<pdfrwt beam="2">  1       21 0.68552982E-01 0.48902485E+03</pdfrwt>
<totfact> 0.50765432E+04</totfact>
</mgrwt>
</event>
</LesHouchesEvents>
